 Gaussian 16, Revision C.01,
 Gaussian 16:  ES64L-G16RevC.01  3-Jul-2019

 ----------------------------------------------------------------------
 # 6-31g(d) m062x g09default scf=(xqc,maxcycle=64) force guess=read td
 nosymm
 ----------------------------------------------------------------------

 ----------
 Title Card
 ----------
 Symbolic Z-matrix:
 Charge =  0 Multiplicity = 1

                          Input orientation:
 ---------------------------------------------------------------------
 Center     Atomic      Atomic             Coordinates (Angstroms)
 Number     Number       Type             X           Y           Z
 ---------------------------------------------------------------------
      1          6           0        1.408689    0.497060   -0.479442
      2          6           0        1.425112   -0.499871    0.559470
      3          6           0        2.635189   -0.973837    1.016456
      4          6           0        3.846596   -0.495244    0.498433
      5          6           0        3.819785    0.492126   -0.577234
      6          6           0        2.584226    0.977019   -1.015841
      7          1           0        2.658553   -1.742761    1.785060
      8          1           0        2.552337    1.748009   -1.781540
      9          6           0        5.001085    0.963269   -1.205086
     10          7           0        5.944679    1.367615   -1.749889
     11          6           0        5.069816   -0.976448    1.028303
     12          7           0        6.066043   -1.379818    1.475090
     13          6           0       -0.329916    2.243409   -0.265517
     14          6           0       -0.877447    0.469517   -1.524531
     15          6           0        0.370675    3.164910    0.525994
     16          6           0       -1.688769    2.428148   -0.636991
     17          6           0       -0.836038   -0.729718   -2.232668
     18          6           0       -2.038637    1.274313   -1.458963
     19          6           0       -0.326778    4.282468    0.959049
     20          1           0        1.419577    3.010619    0.756347
     21          6           0       -2.355957    3.562513   -0.204662
     22          6           0       -2.008604   -1.128652   -2.879442
     23          1           0        0.075215   -1.312611   -2.290357
     24          6           0       -3.174997    0.880381   -2.142531
     25          6           0       -1.667357    4.481738    0.597615
     26          1           0        0.177845    5.020380    1.572604
     27          1           0       -3.388654    3.747841   -0.481317
     28          6           0       -3.155148   -0.337253   -2.845707
     29          1           0       -2.012501   -2.063870   -3.428756
     30          1           0       -4.064748    1.500936   -2.148147
     31          1           0       -2.178653    5.376552    0.935287
     32          1           0       -4.043448   -0.657396   -3.377538
     33          6           0       -0.878746   -0.482762    1.594679
     34          6           0       -0.304370   -2.255612    0.338720
     35          6           0       -0.866801    0.699878    2.332748
     36          6           0       -2.046356   -1.266137    1.462900
     37          6           0        0.392059   -3.193043   -0.434287
     38          6           0       -1.684023   -2.408491    0.642814
     39          6           0       -2.062365    1.091945    2.934694
     40          1           0        0.045986    1.272338    2.451891
     41          6           0       -3.218721   -0.871304    2.097749
     42          6           0       -0.320279   -4.275745   -0.916562
     43          1           0        1.457095   -3.077246   -0.622124
     44          6           0       -2.375395   -3.505920    0.147299
     45          6           0       -3.220587    0.317814    2.829063
     46          1           0       -2.086303    2.013288    3.508711
     47          1           0       -4.117560   -1.477961    2.032325
     48          6           0       -1.692629   -4.431536   -0.638573
     49          1           0        0.188505   -5.029221   -1.508743
     50          1           0       -3.431730   -3.641391    0.366208
     51          1           0       -4.129112    0.638636    3.327812
     52          1           0       -2.218338   -5.290868   -1.036605
     53          7           0        0.138459    1.072707   -0.800167
     54          7           0        0.167130   -1.092000    0.906091
 ---------------------------------------------------------------------

 SCF Done:  E(RM062X) =  -1448.68796680     A.U. after   11 cycles

 Excitation energies and oscillator strengths:

 Excited state symmetry could not be determined.
 Excited State   1:      Singlet-?Sym    2.8852 eV  429.72 nm  f=0.0107  <S**2>=0.000
     119 ->120         0.68977
 This state for optimization and/or second-order correction.
 Total Energy, E(TD-HF/TD-DFT) =  -1448.58193604
 Copying the excited state density for this state as the 1-particle RhoCI density.

 Excited state symmetry could not be determined.
 Excited State   2:      Singlet-?Sym    3.1703 eV  391.08 nm  f=0.0247  <S**2>=0.000
     118 ->120         0.68811

 Excited state symmetry could not be determined.
 Excited State   3:      Singlet-?Sym    3.6022 eV  344.19 nm  f=0.0022  <S**2>=0.000
     117 ->120         0.69427

 Alpha  occ. eigenvalues --  -14.82728 -14.82480 -14.79616 -14.79578 -10.65583
 Alpha  occ. eigenvalues --  -10.65447 -10.65347 -10.65285 -10.62098 -10.62011
 Alpha  occ. eigenvalues --  -10.61616 -10.61584 -10.60037 -10.59928 -10.59734
 Alpha  occ. eigenvalues --  -10.59614 -10.56209 -10.56120 -10.56025 -10.56020
 Alpha  occ. eigenvalues --  -10.56010 -10.55948 -10.55942 -10.55932 -10.55844
 Alpha  occ. eigenvalues --  -10.55833 -10.55789 -10.55674 -10.55646 -10.55646
 Alpha  occ. eigenvalues --  -10.55484 -10.55408 -10.55250 -10.55156 -10.54933
 Alpha  occ. eigenvalues --  -10.54885  -1.13923  -1.11552  -1.05178  -1.03464
 Alpha  occ. eigenvalues --   -1.01769  -0.96829  -0.96247  -0.95869  -0.95545
 Alpha  occ. eigenvalues --   -0.92261  -0.91729  -0.88354  -0.87640  -0.85702
 Alpha  occ. eigenvalues --   -0.85301  -0.83699  -0.82626  -0.81959  -0.81825
 Alpha  occ. eigenvalues --   -0.78807  -0.76932  -0.73308  -0.72988  -0.70038
 Alpha  occ. eigenvalues --   -0.69920  -0.69765  -0.69153  -0.66556  -0.66272
 Alpha  occ. eigenvalues --   -0.66234  -0.63689  -0.62277  -0.61349  -0.60164
 Alpha  occ. eigenvalues --   -0.59736  -0.59017  -0.58449  -0.56329  -0.55887
 Alpha  occ. eigenvalues --   -0.53872  -0.53503  -0.53172  -0.53080  -0.52706
 Alpha  occ. eigenvalues --   -0.52494  -0.51380  -0.51283  -0.50666  -0.50600
 Alpha  occ. eigenvalues --   -0.49295  -0.49218  -0.49171  -0.49127  -0.48648
 Alpha  occ. eigenvalues --   -0.48439  -0.46204  -0.46059  -0.45271  -0.44081
 Alpha  occ. eigenvalues --   -0.43749  -0.43474  -0.43278  -0.43035  -0.42645
 Alpha  occ. eigenvalues --   -0.42262  -0.42200  -0.42085  -0.40701  -0.40590
 Alpha  occ. eigenvalues --   -0.40360  -0.40150  -0.39771  -0.39375  -0.36471
 Alpha  occ. eigenvalues --   -0.34580  -0.34386  -0.33948  -0.31831  -0.30497
 Alpha  occ. eigenvalues --   -0.27395  -0.26670  -0.26413  -0.25050
 Alpha virt. eigenvalues --   -0.08041  -0.03916  -0.00464  -0.00285   0.02709
 Alpha virt. eigenvalues --    0.03553   0.04573   0.05376   0.05698   0.05934
 Alpha virt. eigenvalues --    0.07155   0.07489   0.07697   0.10860   0.11045

 Mulliken charges:
               1
     1  C    0.221150
     2  C    0.236539
     3  C   -0.198612
     4  C    0.130359
     5  C    0.124294
     6  C   -0.181572
     7  H    0.234894
     8  H    0.236969
     9  C    0.235451
    10  N   -0.438496
    11  C    0.231562
    12  N   -0.439590
    13  C    0.286207
    14  C    0.276940
    15  C   -0.186198
    16  C    0.043420
    17  C   -0.166715
    18  C    0.049003
    19  C   -0.173509
    20  H    0.159889
    21  C   -0.190980
    22  C   -0.166830
    23  H    0.159786
    24  C   -0.196332
    25  C   -0.186505
    26  H    0.166586
    27  H    0.170264
    28  C   -0.181512
    29  H    0.165590
    30  H    0.166635
    31  H    0.160174
    32  H    0.160034
    33  C    0.280941
    34  C    0.284705
    35  C   -0.167232
    36  C    0.040839
    37  C   -0.185964
    38  C    0.038537
    39  C   -0.167335
    40  H    0.160088
    41  C   -0.186721
    42  C   -0.175025
    43  H    0.160520
    44  C   -0.183099
    45  C   -0.180549
    46  H    0.165773
    47  H    0.167004
    48  C   -0.187001
    49  H    0.166746
    50  H    0.170015
    51  H    0.161307
    52  H    0.161710
    53  N   -0.716230
    54  N   -0.717925
 Sum of Mulliken charges =  -0.00000

 Dipole moment (field-independent basis, Debye):
    X=             -5.4826    Y=             -0.0062    Z=              0.2118  Tot=              5.4867
 Quadrupole moment (field-independent basis, Debye-Ang):
   XX=           -236.6501   YY=           -193.3080   ZZ=           -206.1987
   XY=              0.0385   XZ=              1.8139   YZ=             13.2164

 Normal termination of Gaussian 16 at Sat Jul 13 20:57:13 2024.
