 Gaussian 16, Revision C.01,
 Gaussian 16:  ES64L-G16RevC.01  3-Jul-2019

 ----------------------------------------------------------------------
 # 6-31g(d) m062x g09default scf=(xqc,maxcycle=64) force guess=read nos
 ymm
 ----------------------------------------------------------------------

 ----------
 Title Card
 ----------
 Symbolic Z-matrix:
 Charge =  0 Multiplicity = 3

                          Input orientation:
 ---------------------------------------------------------------------
 Center     Atomic      Atomic             Coordinates (Angstroms)
 Number     Number       Type             X           Y           Z
 ---------------------------------------------------------------------
      1          6           0        1.408689    0.497060   -0.479442
      2          6           0        1.425112   -0.499871    0.559470
      3          6           0        2.635189   -0.973837    1.016456
      4          6           0        3.846596   -0.495244    0.498433
      5          6           0        3.819785    0.492126   -0.577234
      6          6           0        2.584226    0.977019   -1.015841
      7          1           0        2.658553   -1.742761    1.785060
      8          1           0        2.552337    1.748009   -1.781540
      9          6           0        5.001085    0.963269   -1.205086
     10          7           0        5.944679    1.367615   -1.749889
     11          6           0        5.069816   -0.976448    1.028303
     12          7           0        6.066043   -1.379818    1.475090
     13          6           0       -0.329916    2.243409   -0.265517
     14          6           0       -0.877447    0.469517   -1.524531
     15          6           0        0.370675    3.164910    0.525994
     16          6           0       -1.688769    2.428148   -0.636991
     17          6           0       -0.836038   -0.729718   -2.232668
     18          6           0       -2.038637    1.274313   -1.458963
     19          6           0       -0.326778    4.282468    0.959049
     20          1           0        1.419577    3.010619    0.756347
     21          6           0       -2.355957    3.562513   -0.204662
     22          6           0       -2.008604   -1.128652   -2.879442
     23          1           0        0.075215   -1.312611   -2.290357
     24          6           0       -3.174997    0.880381   -2.142531
     25          6           0       -1.667357    4.481738    0.597615
     26          1           0        0.177845    5.020380    1.572604
     27          1           0       -3.388654    3.747841   -0.481317
     28          6           0       -3.155148   -0.337253   -2.845707
     29          1           0       -2.012501   -2.063870   -3.428756
     30          1           0       -4.064748    1.500936   -2.148147
     31          1           0       -2.178653    5.376552    0.935287
     32          1           0       -4.043448   -0.657396   -3.377538
     33          6           0       -0.878746   -0.482762    1.594679
     34          6           0       -0.304370   -2.255612    0.338720
     35          6           0       -0.866801    0.699878    2.332748
     36          6           0       -2.046356   -1.266137    1.462900
     37          6           0        0.392059   -3.193043   -0.434287
     38          6           0       -1.684023   -2.408491    0.642814
     39          6           0       -2.062365    1.091945    2.934694
     40          1           0        0.045986    1.272338    2.451891
     41          6           0       -3.218721   -0.871304    2.097749
     42          6           0       -0.320279   -4.275745   -0.916562
     43          1           0        1.457095   -3.077246   -0.622124
     44          6           0       -2.375395   -3.505920    0.147299
     45          6           0       -3.220587    0.317814    2.829063
     46          1           0       -2.086303    2.013288    3.508711
     47          1           0       -4.117560   -1.477961    2.032325
     48          6           0       -1.692629   -4.431536   -0.638573
     49          1           0        0.188505   -5.029221   -1.508743
     50          1           0       -3.431730   -3.641391    0.366208
     51          1           0       -4.129112    0.638636    3.327812
     52          1           0       -2.218338   -5.290868   -1.036605
     53          7           0        0.138459    1.072707   -0.800167
     54          7           0        0.167130   -1.092000    0.906091
 ---------------------------------------------------------------------

 SCF Done:  E(UM062X) =  -1448.58163616     A.U. after   20 cycles

 Alpha  occ. eigenvalues --  -14.86229 -14.85145 -14.73034 -14.72993 -10.62283
 Alpha  occ. eigenvalues --  -10.61956 -10.61690 -10.61382 -10.60194 -10.60132
 Alpha  occ. eigenvalues --  -10.59253 -10.58967 -10.58861 -10.58838 -10.58824
 Alpha  occ. eigenvalues --  -10.58738 -10.58616 -10.58448 -10.58343 -10.58188
 Alpha  occ. eigenvalues --  -10.58172 -10.58156 -10.58154 -10.58108 -10.58105
 Alpha  occ. eigenvalues --  -10.57962 -10.57845 -10.57758 -10.57652 -10.57631
 Alpha  occ. eigenvalues --  -10.57544 -10.57468 -10.57418 -10.57349 -10.55557
 Alpha  occ. eigenvalues --  -10.55551  -1.15673  -1.13493  -1.00688  -0.98770
 Alpha  occ. eigenvalues --   -0.98642  -0.98254  -0.97901  -0.97656  -0.95749
 Alpha  occ. eigenvalues --   -0.91701  -0.91107  -0.88397  -0.88136  -0.87710
 Alpha  occ. eigenvalues --   -0.87564  -0.84790  -0.84558  -0.83942  -0.83145
 Alpha  occ. eigenvalues --   -0.77663  -0.76200  -0.73809  -0.73249  -0.72585
 Alpha  occ. eigenvalues --   -0.71755  -0.69573  -0.69226  -0.68956  -0.68306
 Alpha  occ. eigenvalues --   -0.65044  -0.64172  -0.62633  -0.61889  -0.61764
 Alpha  occ. eigenvalues --   -0.60739  -0.59451  -0.58690  -0.56127  -0.55848
 Alpha  occ. eigenvalues --   -0.55183  -0.55118  -0.54234  -0.53948  -0.53281
 Alpha  occ. eigenvalues --   -0.53171  -0.53049  -0.52651  -0.52059  -0.51791
 Alpha  occ. eigenvalues --   -0.51403  -0.51349  -0.50839  -0.49195  -0.47389
 Alpha  occ. eigenvalues --   -0.46607  -0.46355  -0.45843  -0.45606  -0.45359
 Alpha  occ. eigenvalues --   -0.45070  -0.44726  -0.43400  -0.42931  -0.42611
 Alpha  occ. eigenvalues --   -0.42408  -0.41910  -0.41731  -0.40593  -0.40500
 Alpha  occ. eigenvalues --   -0.40485  -0.39576  -0.37276  -0.36652  -0.36617
 Alpha  occ. eigenvalues --   -0.36432  -0.34543  -0.33220  -0.32976  -0.30894
 Alpha  occ. eigenvalues --   -0.29988  -0.29157  -0.28721  -0.27729  -0.15285
 Alpha virt. eigenvalues --   -0.03150  -0.02533   0.00042   0.00244   0.01237
 Alpha virt. eigenvalues --    0.02917   0.03363   0.04870   0.05445   0.09107
 Alpha virt. eigenvalues --    0.10368   0.11430   0.11579   0.12147   0.12190

  Beta  occ. eigenvalues --  -14.85921 -14.84919 -14.72836 -14.72803 -10.62297
  Beta  occ. eigenvalues --  -10.61974 -10.61690 -10.61392 -10.59960 -10.59897
  Beta  occ. eigenvalues --  -10.59202 -10.58899 -10.58856 -10.58847 -10.58759
  Beta  occ. eigenvalues --  -10.58730 -10.58549 -10.58402 -10.58373 -10.58177
  Beta  occ. eigenvalues --  -10.58140 -10.58125 -10.58122 -10.58111 -10.58096
  Beta  occ. eigenvalues --  -10.57961 -10.57823 -10.57750 -10.57715 -10.57657
  Beta  occ. eigenvalues --  -10.57621 -10.57328 -10.57222 -10.57162 -10.55630
  Beta  occ. eigenvalues --  -10.55621  -1.14836  -1.12777  -1.00217  -0.98491
  Beta  occ. eigenvalues --   -0.98265  -0.97917  -0.97778  -0.97077  -0.95247
  Beta  occ. eigenvalues --   -0.91404  -0.90844  -0.88168  -0.87659  -0.87370
  Beta  occ. eigenvalues --   -0.87312  -0.84709  -0.84171  -0.83836  -0.82558
  Beta  occ. eigenvalues --   -0.77150  -0.75941  -0.73407  -0.72927  -0.72273
  Beta  occ. eigenvalues --   -0.71517  -0.69243  -0.69009  -0.68675  -0.68184
  Beta  occ. eigenvalues --   -0.64650  -0.63856  -0.62402  -0.61690  -0.61514
  Beta  occ. eigenvalues --   -0.60527  -0.58341  -0.58259  -0.55942  -0.55651
  Beta  occ. eigenvalues --   -0.55019  -0.54905  -0.53786  -0.53695  -0.52969
  Beta  occ. eigenvalues --   -0.52768  -0.52566  -0.52225  -0.51917  -0.51677
  Beta  occ. eigenvalues --   -0.51264  -0.51233  -0.50723  -0.48723  -0.46268
  Beta  occ. eigenvalues --   -0.46063  -0.45852  -0.45565  -0.45336  -0.45042
  Beta  occ. eigenvalues --   -0.44727  -0.44317  -0.43252  -0.42520  -0.42359
  Beta  occ. eigenvalues --   -0.41848  -0.41269  -0.40927  -0.39947  -0.39849
  Beta  occ. eigenvalues --   -0.38796  -0.37631  -0.36749  -0.36313  -0.36219
  Beta  occ. eigenvalues --   -0.36095  -0.33595  -0.31926  -0.31471  -0.29865
  Beta  occ. eigenvalues --   -0.28979  -0.27017  -0.26255
  Beta virt. eigenvalues --   -0.18183  -0.02689  -0.02136  -0.01324   0.00572
  Beta virt. eigenvalues --    0.00726   0.01543   0.03916   0.04158   0.05378
  Beta virt. eigenvalues --    0.05805   0.10667   0.11281   0.11636   0.11965

 Mulliken charges and spin densities:
               1          2
     1  C    0.156247   0.272214
     2  C    0.178320   0.275549
     3  C   -0.207245  -0.119736
     4  C    0.085891   0.330657
     5  C    0.079676   0.317296
     6  C   -0.191402  -0.115790
     7  H    0.199594   0.003200
     8  H    0.199684   0.002927
     9  C    0.193137  -0.071639
    10  N   -0.490254   0.166298
    11  C    0.189781  -0.075225
    12  N   -0.490565   0.172756
    13  C    0.280824  -0.029405
    14  C    0.273047  -0.030058
    15  C   -0.164550   0.101689
    16  C    0.053851   0.073760
    17  C   -0.153788   0.091318
    18  C    0.053017   0.012502
    19  C   -0.177876  -0.046832
    20  H    0.209469  -0.005011
    21  C   -0.190943  -0.029127
    22  C   -0.167416  -0.020263
    23  H    0.196265  -0.004166
    24  C   -0.190924   0.023718
    25  C   -0.169628   0.111883
    26  H    0.186125   0.001455
    27  H    0.181705   0.000956
    28  C   -0.170752   0.061886
    29  H    0.180511   0.000297
    30  H    0.180224  -0.001490
    31  H    0.179820  -0.005605
    32  H    0.177109  -0.003342
    33  C    0.275511  -0.019248
    34  C    0.279593  -0.015097
    35  C   -0.165487   0.060010
    36  C    0.040101   0.001446
    37  C   -0.173897   0.070918
    38  C    0.043335   0.063179
    39  C   -0.168488  -0.006600
    40  H    0.187354  -0.002887
    41  C   -0.183385   0.024327
    42  C   -0.179401  -0.034390
    43  H    0.203647  -0.003565
    44  C   -0.185632  -0.026733
    45  C   -0.175600   0.033605
    46  H    0.174702  -0.000109
    47  H    0.176120  -0.001372
    48  C   -0.175680   0.084727
    49  H    0.181896   0.001098
    50  H    0.176763   0.001038
    51  H    0.172300  -0.001894
    52  H    0.175607  -0.004210
    53  N   -0.667867   0.182904
    54  N   -0.680447   0.130178
 Sum of Mulliken charges =  -0.00000   2.00000

 Dipole moment (field-independent basis, Debye):
    X=            -16.6682    Y=              0.6555    Z=             -0.0948  Tot=             16.6814
 Quadrupole moment (field-independent basis, Debye-Ang):
   XX=           -270.7536   YY=           -177.3773   ZZ=           -202.1643
   XY=             -0.7441   XZ=              3.6740   YZ=             18.2892

 Normal termination of Gaussian 16 at Sat Jul 13 20:47:40 2024.
