 Gaussian 16, Revision C.01,
 Gaussian 16:  ES64L-G16RevC.01  3-Jul-2019

 ----------------------------------------------------------------------
 # 6-31g(d) m062x g09default scf=(xqc,maxcycle=64) force guess=read td
 nosymm
 ----------------------------------------------------------------------

 ----------
 Title Card
 ----------
 Symbolic Z-matrix:
 Charge =  0 Multiplicity = 1

                          Input orientation:
 ---------------------------------------------------------------------
 Center     Atomic      Atomic             Coordinates (Angstroms)
 Number     Number       Type             X           Y           Z
 ---------------------------------------------------------------------
      1          6           0        1.408374    0.488737   -0.482222
      2          6           0        1.424516   -0.498384    0.562979
      3          6           0        2.634875   -0.969508    1.020886
      4          6           0        3.846541   -0.493415    0.496983
      5          6           0        3.815005    0.490335   -0.571281
      6          6           0        2.584698    0.967839   -1.021822
      7          1           0        2.650429   -1.741448    1.786587
      8          1           0        2.557899    1.732254   -1.794223
      9          6           0        4.997794    0.967445   -1.195160
     10          7           0        5.948356    1.368889   -1.731427
     11          6           0        5.068752   -0.978399    1.024912
     12          7           0        6.062154   -1.387106    1.470367
     13          6           0       -0.325457    2.249157   -0.282028
     14          6           0       -0.874593    0.478811   -1.537470
     15          6           0        0.371213    3.169766    0.520042
     16          6           0       -1.686001    2.441140   -0.657493
     17          6           0       -0.831029   -0.724615   -2.239389
     18          6           0       -2.039415    1.280734   -1.467818
     19          6           0       -0.328145    4.288456    0.950422
     20          1           0        1.407137    2.993471    0.785203
     21          6           0       -2.356809    3.562717   -0.213637
     22          6           0       -2.007636   -1.125213   -2.885996
     23          1           0        0.084016   -1.300784   -2.301663
     24          6           0       -3.180271    0.876962   -2.131615
     25          6           0       -1.669018    4.483788    0.592505
     26          1           0        0.170725    5.026458    1.569530
     27          1           0       -3.396993    3.732734   -0.472323
     28          6           0       -3.153315   -0.338711   -2.841989
     29          1           0       -2.018777   -2.062760   -3.431807
     30          1           0       -4.082669    1.480950   -2.116063
     31          1           0       -2.187972    5.370680    0.943460
     32          1           0       -4.044350   -0.658637   -3.371428
     33          6           0       -0.869944   -0.490904    1.608232
     34          6           0       -0.301593   -2.261101    0.353725
     35          6           0       -0.858261    0.696083    2.338387
     36          6           0       -2.041750   -1.267248    1.465400
     37          6           0        0.393478   -3.193908   -0.431171
     38          6           0       -1.680647   -2.413413    0.654883
     39          6           0       -2.054989    1.096076    2.932818
     40          1           0        0.057949    1.263987    2.460812
     41          6           0       -3.219233   -0.858779    2.087591
     42          6           0       -0.322411   -4.277515   -0.916271
     43          1           0        1.449074   -3.057267   -0.640587
     44          6           0       -2.374234   -3.510439    0.149677
     45          6           0       -3.218731    0.327192    2.819224
     46          1           0       -2.075770    2.015366    3.511000
     47          1           0       -4.117113   -1.465851    2.015536
     48          6           0       -1.691680   -4.434884   -0.634269
     49          1           0        0.184656   -5.023710   -1.519380
     50          1           0       -3.432007   -3.641058    0.358342
     51          1           0       -4.125334    0.646381    3.322129
     52          1           0       -2.220711   -5.296795   -1.029647
     53          7           0        0.137768    1.078181   -0.808227
     54          7           0        0.175140   -1.104029    0.924968
 ---------------------------------------------------------------------

 SCF Done:  E(RM062X) =  -1448.68836407     A.U. after   11 cycles

 Excitation energies and oscillator strengths:

 Excited state symmetry could not be determined.
 Excited State   1:      Singlet-?Sym    2.8914 eV  428.81 nm  f=0.0103  <S**2>=0.000
     119 ->120         0.68957
 This state for optimization and/or second-order correction.
 Total Energy, E(TD-HF/TD-DFT) =  -1448.58210876
 Copying the excited state density for this state as the 1-particle RhoCI density.

 Excited state symmetry could not be determined.
 Excited State   2:      Singlet-?Sym    3.1793 eV  389.97 nm  f=0.0226  <S**2>=0.000
     118 ->120         0.68875

 Excited state symmetry could not be determined.
 Excited State   3:      Singlet-?Sym    3.6056 eV  343.87 nm  f=0.0021  <S**2>=0.000
     117 ->120         0.69491

 Alpha  occ. eigenvalues --  -14.82754 -14.82544 -14.79620 -14.79612 -10.65645
 Alpha  occ. eigenvalues --  -10.65577 -10.65336 -10.65253 -10.62122 -10.62052
 Alpha  occ. eigenvalues --  -10.61618 -10.61612 -10.60032 -10.59959 -10.59707
 Alpha  occ. eigenvalues --  -10.59613 -10.56247 -10.56115 -10.56043 -10.56040
 Alpha  occ. eigenvalues --  -10.55979 -10.55963 -10.55912 -10.55900 -10.55840
 Alpha  occ. eigenvalues --  -10.55819 -10.55812 -10.55700 -10.55668 -10.55638
 Alpha  occ. eigenvalues --  -10.55531 -10.55424 -10.55262 -10.55140 -10.54947
 Alpha  occ. eigenvalues --  -10.54860  -1.13929  -1.11667  -1.05272  -1.03490
 Alpha  occ. eigenvalues --   -1.01848  -0.96830  -0.96233  -0.95820  -0.95502
 Alpha  occ. eigenvalues --   -0.92307  -0.91795  -0.88345  -0.87652  -0.85701
 Alpha  occ. eigenvalues --   -0.85293  -0.83673  -0.82590  -0.81953  -0.81791
 Alpha  occ. eigenvalues --   -0.78818  -0.76979  -0.73309  -0.73052  -0.70053
 Alpha  occ. eigenvalues --   -0.69989  -0.69767  -0.69098  -0.66561  -0.66315
 Alpha  occ. eigenvalues --   -0.66207  -0.63660  -0.62328  -0.61377  -0.60155
 Alpha  occ. eigenvalues --   -0.59742  -0.58998  -0.58476  -0.56340  -0.55898
 Alpha  occ. eigenvalues --   -0.53899  -0.53513  -0.53135  -0.53104  -0.52691
 Alpha  occ. eigenvalues --   -0.52507  -0.51403  -0.51290  -0.50700  -0.50592
 Alpha  occ. eigenvalues --   -0.49353  -0.49256  -0.49161  -0.49079  -0.48630
 Alpha  occ. eigenvalues --   -0.48479  -0.46224  -0.46070  -0.45287  -0.44095
 Alpha  occ. eigenvalues --   -0.43699  -0.43462  -0.43274  -0.43014  -0.42644
 Alpha  occ. eigenvalues --   -0.42224  -0.42205  -0.42137  -0.40719  -0.40598
 Alpha  occ. eigenvalues --   -0.40390  -0.40153  -0.39759  -0.39409  -0.36509
 Alpha  occ. eigenvalues --   -0.34603  -0.34397  -0.34047  -0.31821  -0.30486
 Alpha  occ. eigenvalues --   -0.27364  -0.26653  -0.26409  -0.25047
 Alpha virt. eigenvalues --   -0.08009  -0.03980  -0.00501  -0.00271   0.02718
 Alpha virt. eigenvalues --    0.03535   0.04581   0.05366   0.05726   0.05987
 Alpha virt. eigenvalues --    0.07086   0.07463   0.07735   0.10791   0.10977

 Mulliken charges:
               1
     1  C    0.216498
     2  C    0.234358
     3  C   -0.197727
     4  C    0.132265
     5  C    0.124412
     6  C   -0.179880
     7  H    0.234901
     8  H    0.238155
     9  C    0.235198
    10  N   -0.438856
    11  C    0.232015
    12  N   -0.438838
    13  C    0.288586
    14  C    0.276655
    15  C   -0.185061
    16  C    0.043787
    17  C   -0.168534
    18  C    0.050575
    19  C   -0.172793
    20  H    0.158242
    21  C   -0.192492
    22  C   -0.166095
    23  H    0.159289
    24  C   -0.197421
    25  C   -0.187285
    26  H    0.166484
    27  H    0.170031
    28  C   -0.181720
    29  H    0.165811
    30  H    0.167007
    31  H    0.159847
    32  H    0.159285
    33  C    0.281761
    34  C    0.283545
    35  C   -0.167004
    36  C    0.036110
    37  C   -0.184617
    38  C    0.038840
    39  C   -0.167607
    40  H    0.159307
    41  C   -0.184324
    42  C   -0.175387
    43  H    0.159422
    44  C   -0.181505
    45  C   -0.180816
    46  H    0.165885
    47  H    0.166609
    48  C   -0.185707
    49  H    0.166734
    50  H    0.169979
    51  H    0.161434
    52  H    0.161892
    53  N   -0.715510
    54  N   -0.715742
 Sum of Mulliken charges =  -0.00000

 Dipole moment (field-independent basis, Debye):
    X=             -5.4566    Y=             -0.0470    Z=              0.2193  Tot=              5.4612
 Quadrupole moment (field-independent basis, Debye-Ang):
   XX=           -236.4577   YY=           -193.8785   ZZ=           -206.0524
   XY=              0.1490   XZ=              1.6200   YZ=             13.4314

 Normal termination of Gaussian 16 at Sat Jul 13 22:56:38 2024.
