 Gaussian 16, Revision C.01,
 Gaussian 16:  ES64L-G16RevC.01  3-Jul-2019

 ----------------------------------------------------------------------
 # 6-31g(d) m062x g09default scf=(xqc,maxcycle=64) force guess=read nos
 ymm
 ----------------------------------------------------------------------

 ----------
 Title Card
 ----------
 Symbolic Z-matrix:
 Charge =  0 Multiplicity = 3

                          Input orientation:
 ---------------------------------------------------------------------
 Center     Atomic      Atomic             Coordinates (Angstroms)
 Number     Number       Type             X           Y           Z
 ---------------------------------------------------------------------
      1          6           0        1.408374    0.488737   -0.482222
      2          6           0        1.424516   -0.498384    0.562979
      3          6           0        2.634875   -0.969508    1.020886
      4          6           0        3.846541   -0.493415    0.496983
      5          6           0        3.815005    0.490335   -0.571281
      6          6           0        2.584698    0.967839   -1.021822
      7          1           0        2.650429   -1.741448    1.786587
      8          1           0        2.557899    1.732254   -1.794223
      9          6           0        4.997794    0.967445   -1.195160
     10          7           0        5.948356    1.368889   -1.731427
     11          6           0        5.068752   -0.978399    1.024912
     12          7           0        6.062154   -1.387106    1.470367
     13          6           0       -0.325457    2.249157   -0.282028
     14          6           0       -0.874593    0.478811   -1.537470
     15          6           0        0.371213    3.169766    0.520042
     16          6           0       -1.686001    2.441140   -0.657493
     17          6           0       -0.831029   -0.724615   -2.239389
     18          6           0       -2.039415    1.280734   -1.467818
     19          6           0       -0.328145    4.288456    0.950422
     20          1           0        1.407137    2.993471    0.785203
     21          6           0       -2.356809    3.562717   -0.213637
     22          6           0       -2.007636   -1.125213   -2.885996
     23          1           0        0.084016   -1.300784   -2.301663
     24          6           0       -3.180271    0.876962   -2.131615
     25          6           0       -1.669018    4.483788    0.592505
     26          1           0        0.170725    5.026458    1.569530
     27          1           0       -3.396993    3.732734   -0.472323
     28          6           0       -3.153315   -0.338711   -2.841989
     29          1           0       -2.018777   -2.062760   -3.431807
     30          1           0       -4.082669    1.480950   -2.116063
     31          1           0       -2.187972    5.370680    0.943460
     32          1           0       -4.044350   -0.658637   -3.371428
     33          6           0       -0.869944   -0.490904    1.608232
     34          6           0       -0.301593   -2.261101    0.353725
     35          6           0       -0.858261    0.696083    2.338387
     36          6           0       -2.041750   -1.267248    1.465400
     37          6           0        0.393478   -3.193908   -0.431171
     38          6           0       -1.680647   -2.413413    0.654883
     39          6           0       -2.054989    1.096076    2.932818
     40          1           0        0.057949    1.263987    2.460812
     41          6           0       -3.219233   -0.858779    2.087591
     42          6           0       -0.322411   -4.277515   -0.916271
     43          1           0        1.449074   -3.057267   -0.640587
     44          6           0       -2.374234   -3.510439    0.149677
     45          6           0       -3.218731    0.327192    2.819224
     46          1           0       -2.075770    2.015366    3.511000
     47          1           0       -4.117113   -1.465851    2.015536
     48          6           0       -1.691680   -4.434884   -0.634269
     49          1           0        0.184656   -5.023710   -1.519380
     50          1           0       -3.432007   -3.641058    0.358342
     51          1           0       -4.125334    0.646381    3.322129
     52          1           0       -2.220711   -5.296795   -1.029647
     53          7           0        0.137768    1.078181   -0.808227
     54          7           0        0.175140   -1.104029    0.924968
 ---------------------------------------------------------------------

 SCF Done:  E(UM062X) =  -1448.58121873     A.U. after   21 cycles

 Alpha  occ. eigenvalues --  -14.86733 -14.84718 -14.72922 -14.72800 -10.62630
 Alpha  occ. eigenvalues --  -10.62221 -10.61461 -10.61160 -10.60095 -10.60035
 Alpha  occ. eigenvalues --  -10.59564 -10.59365 -10.59207 -10.59171 -10.59135
 Alpha  occ. eigenvalues --  -10.59028 -10.59019 -10.58629 -10.58487 -10.58379
 Alpha  occ. eigenvalues --  -10.58212 -10.57977 -10.57971 -10.57966 -10.57921
 Alpha  occ. eigenvalues --  -10.57744 -10.57634 -10.57616 -10.57558 -10.57558
 Alpha  occ. eigenvalues --  -10.57356 -10.57263 -10.57194 -10.57166 -10.55490
 Alpha  occ. eigenvalues --  -10.55346  -1.15898  -1.13406  -1.00695  -0.98917
 Alpha  occ. eigenvalues --   -0.98803  -0.98134  -0.97672  -0.97513  -0.95711
 Alpha  occ. eigenvalues --   -0.91920  -0.90933  -0.88663  -0.88208  -0.87588
 Alpha  occ. eigenvalues --   -0.87385  -0.85087  -0.84572  -0.83711  -0.83132
 Alpha  occ. eigenvalues --   -0.77755  -0.76130  -0.73867  -0.73327  -0.72716
 Alpha  occ. eigenvalues --   -0.71538  -0.69623  -0.69388  -0.68931  -0.68162
 Alpha  occ. eigenvalues --   -0.65117  -0.64049  -0.62920  -0.61932  -0.61677
 Alpha  occ. eigenvalues --   -0.60675  -0.59423  -0.58679  -0.56247  -0.56104
 Alpha  occ. eigenvalues --   -0.55069  -0.54994  -0.54410  -0.54087  -0.53459
 Alpha  occ. eigenvalues --   -0.53122  -0.52978  -0.52524  -0.52334  -0.51824
 Alpha  occ. eigenvalues --   -0.51502  -0.51125  -0.50683  -0.49066  -0.47340
 Alpha  occ. eigenvalues --   -0.46698  -0.46482  -0.46041  -0.45778  -0.45146
 Alpha  occ. eigenvalues --   -0.44927  -0.44646  -0.43707  -0.43068  -0.42684
 Alpha  occ. eigenvalues --   -0.42414  -0.41822  -0.41565  -0.40494  -0.40355
 Alpha  occ. eigenvalues --   -0.40315  -0.39505  -0.37595  -0.36508  -0.36438
 Alpha  occ. eigenvalues --   -0.36321  -0.34709  -0.33124  -0.32907  -0.30824
 Alpha  occ. eigenvalues --   -0.30196  -0.29308  -0.28570  -0.27662  -0.15082
 Alpha virt. eigenvalues --   -0.03403  -0.02429  -0.00213   0.00312   0.01374
 Alpha virt. eigenvalues --    0.02649   0.03549   0.04655   0.05587   0.09173
 Alpha virt. eigenvalues --    0.10514   0.11358   0.11659   0.11993   0.12240

  Beta  occ. eigenvalues --  -14.86397 -14.84519 -14.72743 -14.72602 -10.62648
  Beta  occ. eigenvalues --  -10.62244 -10.61458 -10.61167 -10.59863 -10.59800
  Beta  occ. eigenvalues --  -10.59509 -10.59288 -10.59156 -10.59151 -10.59134
  Beta  occ. eigenvalues --  -10.59019 -10.58945 -10.58665 -10.58459 -10.58381
  Beta  occ. eigenvalues --  -10.58170 -10.57956 -10.57937 -10.57936 -10.57922
  Beta  occ. eigenvalues --  -10.57745 -10.57699 -10.57643 -10.57562 -10.57521
  Beta  occ. eigenvalues --  -10.57442 -10.57149 -10.57026 -10.56932 -10.55556
  Beta  occ. eigenvalues --  -10.55419  -1.15007  -1.12754  -1.00226  -0.98734
  Beta  occ. eigenvalues --   -0.98329  -0.97792  -0.97558  -0.96950  -0.95224
  Beta  occ. eigenvalues --   -0.91621  -0.90677  -0.88406  -0.87699  -0.87267
  Beta  occ. eigenvalues --   -0.87157  -0.85010  -0.84124  -0.83635  -0.82577
  Beta  occ. eigenvalues --   -0.77265  -0.75859  -0.73461  -0.72988  -0.72390
  Beta  occ. eigenvalues --   -0.71319  -0.69271  -0.69221  -0.68604  -0.68055
  Beta  occ. eigenvalues --   -0.64717  -0.63738  -0.62678  -0.61670  -0.61493
  Beta  occ. eigenvalues --   -0.60460  -0.58339  -0.58229  -0.56039  -0.55890
  Beta  occ. eigenvalues --   -0.54879  -0.54840  -0.53911  -0.53880  -0.52936
  Beta  occ. eigenvalues --   -0.52740  -0.52619  -0.52187  -0.52174  -0.51658
  Beta  occ. eigenvalues --   -0.51366  -0.51026  -0.50576  -0.48604  -0.46418
  Beta  occ. eigenvalues --   -0.46121  -0.45935  -0.45610  -0.45358  -0.44915
  Beta  occ. eigenvalues --   -0.44641  -0.44257  -0.43550  -0.42549  -0.42322
  Beta  occ. eigenvalues --   -0.41813  -0.41362  -0.40834  -0.39887  -0.39685
  Beta  occ. eigenvalues --   -0.38680  -0.37625  -0.37011  -0.36194  -0.36073
  Beta  occ. eigenvalues --   -0.35983  -0.33622  -0.31923  -0.31374  -0.30123
  Beta  occ. eigenvalues --   -0.28797  -0.27075  -0.26209
  Beta virt. eigenvalues --   -0.18247  -0.02870  -0.02065  -0.01194   0.00371
  Beta virt. eigenvalues --    0.00765   0.01657   0.03796   0.04225   0.05230
  Beta virt. eigenvalues --    0.05912   0.10801   0.11295   0.11453   0.12098

 Mulliken charges and spin densities:
               1          2
     1  C    0.146160   0.272866
     2  C    0.176657   0.268448
     3  C   -0.206388  -0.117558
     4  C    0.086024   0.333260
     5  C    0.079199   0.296490
     6  C   -0.190665  -0.111347
     7  H    0.199034   0.003154
     8  H    0.199433   0.002731
     9  C    0.193015  -0.066635
    10  N   -0.491544   0.156585
    11  C    0.188590  -0.074785
    12  N   -0.491459   0.173134
    13  C    0.283882  -0.033763
    14  C    0.273008  -0.034798
    15  C   -0.159411   0.116278
    16  C    0.056385   0.079889
    17  C   -0.151270   0.104996
    18  C    0.055581   0.014307
    19  C   -0.177500  -0.053079
    20  H    0.211615  -0.005783
    21  C   -0.191915  -0.031807
    22  C   -0.166309  -0.024422
    23  H    0.199600  -0.004760
    24  C   -0.191030   0.025841
    25  C   -0.167698   0.127044
    26  H    0.188165   0.001633
    27  H    0.183285   0.000993
    28  C   -0.169195   0.070739
    29  H    0.183067   0.000385
    30  H    0.182185  -0.001631
    31  H    0.182102  -0.006357
    32  H    0.178600  -0.003808
    33  C    0.276430  -0.016186
    34  C    0.278035  -0.011103
    35  C   -0.168742   0.052811
    36  C    0.033713  -0.000825
    37  C   -0.174793   0.064742
    38  C    0.042205   0.057627
    39  C   -0.169352  -0.003712
    40  H    0.184831  -0.002635
    41  C   -0.181768   0.024678
    42  C   -0.180076  -0.031096
    43  H    0.201654  -0.003389
    44  C   -0.184908  -0.024377
    45  C   -0.177346   0.027854
    46  H    0.173000  -0.000215
    47  H    0.174597  -0.001350
    48  C   -0.176100   0.075786
    49  H    0.180632   0.001007
    50  H    0.175257   0.000981
    51  H    0.170874  -0.001596
    52  H    0.174102  -0.003779
    53  N   -0.662541   0.202895
    54  N   -0.680908   0.113646
 Sum of Mulliken charges =  -0.00000   2.00000

 Dipole moment (field-independent basis, Debye):
    X=            -16.9206    Y=              1.1441    Z=             -0.4032  Tot=             16.9640
 Quadrupole moment (field-independent basis, Debye-Ang):
   XX=           -271.4131   YY=           -177.4335   ZZ=           -201.8756
   XY=             -1.1040   XZ=              4.1144   YZ=             18.6055

 Normal termination of Gaussian 16 at Sat Jul 13 22:47:05 2024.
