 Gaussian 16, Revision C.01,
 Gaussian 16:  ES64L-G16RevC.01  3-Jul-2019

 ----------------------------------------------------------------------
 # 6-31g(d) m062x g09default scf=(xqc,maxcycle=64) force guess=read td
 nosymm
 ----------------------------------------------------------------------

 ----------
 Title Card
 ----------
 Symbolic Z-matrix:
 Charge =  0 Multiplicity = 1

                          Input orientation:
 ---------------------------------------------------------------------
 Center     Atomic      Atomic             Coordinates (Angstroms)
 Number     Number       Type             X           Y           Z
 ---------------------------------------------------------------------
      1          6           0        1.406612    0.488093   -0.484196
      2          6           0        1.423535   -0.496924    0.565942
      3          6           0        2.634371   -0.966930    1.021309
      4          6           0        3.846505   -0.493258    0.498321
      5          6           0        3.815810    0.489873   -0.572030
      6          6           0        2.584053    0.964262   -1.024054
      7          1           0        2.650510   -1.739902    1.785747
      8          1           0        2.558487    1.729784   -1.794923
      9          6           0        4.998560    0.967940   -1.193581
     10          7           0        5.948461    1.369573   -1.729613
     11          6           0        5.069222   -0.979055    1.024126
     12          7           0        6.062591   -1.388195    1.470271
     13          6           0       -0.326889    2.248518   -0.278978
     14          6           0       -0.873671    0.480056   -1.540780
     15          6           0        0.370697    3.168337    0.521486
     16          6           0       -1.685527    2.439843   -0.656782
     17          6           0       -0.831056   -0.723331   -2.241080
     18          6           0       -2.038600    1.282017   -1.470356
     19          6           0       -0.328217    4.288797    0.949664
     20          1           0        1.406730    2.993212    0.786534
     21          6           0       -2.357522    3.563373   -0.214587
     22          6           0       -2.006989   -1.125465   -2.885796
     23          1           0        0.084042   -1.300087   -2.301956
     24          6           0       -3.180977    0.876437   -2.131233
     25          6           0       -1.668885    4.483833    0.591370
     26          1           0        0.170266    5.026276    1.569225
     27          1           0       -3.397887    3.732109   -0.471969
     28          6           0       -3.154160   -0.339240   -2.841739
     29          1           0       -2.018366   -2.062010   -3.432141
     30          1           0       -4.083718    1.478970   -2.112888
     31          1           0       -2.188237    5.369329    0.943676
     32          1           0       -4.044721   -0.659649   -3.370337
     33          6           0       -0.869645   -0.490896    1.609988
     34          6           0       -0.302495   -2.261038    0.351799
     35          6           0       -0.858178    0.695074    2.339430
     36          6           0       -2.041179   -1.268013    1.467041
     37          6           0        0.392589   -3.193141   -0.433144
     38          6           0       -1.679678   -2.412704    0.654156
     39          6           0       -2.053820    1.096334    2.932601
     40          1           0        0.058837    1.262852    2.461844
     41          6           0       -3.218916   -0.857701    2.087864
     42          6           0       -0.322823   -4.276202   -0.915629
     43          1           0        1.448752   -3.056984   -0.641685
     44          6           0       -2.374569   -3.510226    0.151016
     45          6           0       -3.218572    0.327518    2.818326
     46          1           0       -2.074751    2.014959    3.510664
     47          1           0       -4.117865   -1.463781    2.013846
     48          6           0       -1.690804   -4.435720   -0.633940
     49          1           0        0.184627   -5.023108   -1.520371
     50          1           0       -3.432168   -3.641154    0.358324
     51          1           0       -4.125408    0.648107    3.320994
     52          1           0       -2.220316   -5.296562   -1.028970
     53          7           0        0.138611    1.077454   -0.808435
     54          7           0        0.176430   -1.102942    0.925822
 ---------------------------------------------------------------------

 SCF Done:  E(RM062X) =  -1448.68850249     A.U. after   10 cycles

 Excitation energies and oscillator strengths:

 Excited state symmetry could not be determined.
 Excited State   1:      Singlet-?Sym    2.8924 eV  428.66 nm  f=0.0100  <S**2>=0.000
     119 ->120         0.68931
 This state for optimization and/or second-order correction.
 Total Energy, E(TD-HF/TD-DFT) =  -1448.58220948
 Copying the excited state density for this state as the 1-particle RhoCI density.

 Excited state symmetry could not be determined.
 Excited State   2:      Singlet-?Sym    3.1708 eV  391.02 nm  f=0.0218  <S**2>=0.000
     118 ->120         0.68842

 Excited state symmetry could not be determined.
 Excited State   3:      Singlet-?Sym    3.6003 eV  344.37 nm  f=0.0020  <S**2>=0.000
     117 ->120         0.69525

 Alpha  occ. eigenvalues --  -14.82726 -14.82515 -14.79621 -14.79589 -10.65605
 Alpha  occ. eigenvalues --  -10.65540 -10.65318 -10.65236 -10.62071 -10.62021
 Alpha  occ. eigenvalues --  -10.61617 -10.61587 -10.60044 -10.59962 -10.59697
 Alpha  occ. eigenvalues --  -10.59610 -10.56246 -10.56124 -10.56062 -10.56039
 Alpha  occ. eigenvalues --  -10.55997 -10.55979 -10.55921 -10.55917 -10.55843
 Alpha  occ. eigenvalues --  -10.55815 -10.55799 -10.55685 -10.55666 -10.55644
 Alpha  occ. eigenvalues --  -10.55524 -10.55423 -10.55276 -10.55148 -10.54947
 Alpha  occ. eigenvalues --  -10.54867  -1.13895  -1.11619  -1.05250  -1.03485
 Alpha  occ. eigenvalues --   -1.01820  -0.96841  -0.96249  -0.95845  -0.95518
 Alpha  occ. eigenvalues --   -0.92285  -0.91770  -0.88359  -0.87655  -0.85704
 Alpha  occ. eigenvalues --   -0.85295  -0.83695  -0.82604  -0.81953  -0.81802
 Alpha  occ. eigenvalues --   -0.78810  -0.76950  -0.73315  -0.73031  -0.70035
 Alpha  occ. eigenvalues --   -0.69979  -0.69748  -0.69125  -0.66575  -0.66319
 Alpha  occ. eigenvalues --   -0.66216  -0.63672  -0.62311  -0.61382  -0.60151
 Alpha  occ. eigenvalues --   -0.59732  -0.59006  -0.58475  -0.56313  -0.55888
 Alpha  occ. eigenvalues --   -0.53879  -0.53505  -0.53142  -0.53114  -0.52687
 Alpha  occ. eigenvalues --   -0.52509  -0.51405  -0.51290  -0.50700  -0.50597
 Alpha  occ. eigenvalues --   -0.49343  -0.49239  -0.49173  -0.49088  -0.48637
 Alpha  occ. eigenvalues --   -0.48466  -0.46216  -0.46065  -0.45280  -0.44082
 Alpha  occ. eigenvalues --   -0.43723  -0.43466  -0.43266  -0.43027  -0.42647
 Alpha  occ. eigenvalues --   -0.42234  -0.42198  -0.42133  -0.40723  -0.40596
 Alpha  occ. eigenvalues --   -0.40374  -0.40141  -0.39767  -0.39421  -0.36493
 Alpha  occ. eigenvalues --   -0.34590  -0.34403  -0.34032  -0.31834  -0.30494
 Alpha  occ. eigenvalues --   -0.27372  -0.26651  -0.26412  -0.25081
 Alpha virt. eigenvalues --   -0.08025  -0.03940  -0.00500  -0.00285   0.02720
 Alpha virt. eigenvalues --    0.03540   0.04581   0.05348   0.05714   0.05997
 Alpha virt. eigenvalues --    0.07073   0.07456   0.07736   0.10842   0.11006

 Mulliken charges:
               1
     1  C    0.216120
     2  C    0.234528
     3  C   -0.198662
     4  C    0.133242
     5  C    0.124737
     6  C   -0.180022
     7  H    0.234334
     8  H    0.237469
     9  C    0.234610
    10  N   -0.438598
    11  C    0.231816
    12  N   -0.439055
    13  C    0.288787
    14  C    0.277198
    15  C   -0.185271
    16  C    0.042857
    17  C   -0.168593
    18  C    0.050250
    19  C   -0.172772
    20  H    0.158663
    21  C   -0.191613
    22  C   -0.166082
    23  H    0.159271
    24  C   -0.196975
    25  C   -0.187207
    26  H    0.166554
    27  H    0.170238
    28  C   -0.181988
    29  H    0.165789
    30  H    0.166953
    31  H    0.159846
    32  H    0.159362
    33  C    0.282426
    34  C    0.283106
    35  C   -0.167097
    36  C    0.035965
    37  C   -0.183973
    38  C    0.039283
    39  C   -0.167715
    40  H    0.159298
    41  C   -0.184035
    42  C   -0.175533
    43  H    0.159832
    44  C   -0.182071
    45  C   -0.180960
    46  H    0.165877
    47  H    0.166494
    48  C   -0.185443
    49  H    0.166551
    50  H    0.170206
    51  H    0.161401
    52  H    0.162078
    53  N   -0.715591
    54  N   -0.715883
 Sum of Mulliken charges =  -0.00000

 Dipole moment (field-independent basis, Debye):
    X=             -5.4847    Y=             -0.0467    Z=              0.2195  Tot=              5.4893
 Quadrupole moment (field-independent basis, Debye-Ang):
   XX=           -236.4588   YY=           -193.8048   ZZ=           -206.0612
   XY=              0.1636   XZ=              1.6163   YZ=             13.4869

 Normal termination of Gaussian 16 at Sat Jul 13 23:08:12 2024.
