 Gaussian 16, Revision C.01,
 Gaussian 16:  ES64L-G16RevC.01  3-Jul-2019

 ----------------------------------------------------------------------
 # 6-31g(d) m062x g09default scf=(xqc,maxcycle=64) force guess=read nos
 ymm
 ----------------------------------------------------------------------

 ----------
 Title Card
 ----------
 Symbolic Z-matrix:
 Charge =  0 Multiplicity = 3

                          Input orientation:
 ---------------------------------------------------------------------
 Center     Atomic      Atomic             Coordinates (Angstroms)
 Number     Number       Type             X           Y           Z
 ---------------------------------------------------------------------
      1          6           0        1.406612    0.488093   -0.484196
      2          6           0        1.423535   -0.496924    0.565942
      3          6           0        2.634371   -0.966930    1.021309
      4          6           0        3.846505   -0.493258    0.498321
      5          6           0        3.815810    0.489873   -0.572030
      6          6           0        2.584053    0.964262   -1.024054
      7          1           0        2.650510   -1.739902    1.785747
      8          1           0        2.558487    1.729784   -1.794923
      9          6           0        4.998560    0.967940   -1.193581
     10          7           0        5.948461    1.369573   -1.729613
     11          6           0        5.069222   -0.979055    1.024126
     12          7           0        6.062591   -1.388195    1.470271
     13          6           0       -0.326889    2.248518   -0.278978
     14          6           0       -0.873671    0.480056   -1.540780
     15          6           0        0.370697    3.168337    0.521486
     16          6           0       -1.685527    2.439843   -0.656782
     17          6           0       -0.831056   -0.723331   -2.241080
     18          6           0       -2.038600    1.282017   -1.470356
     19          6           0       -0.328217    4.288797    0.949664
     20          1           0        1.406730    2.993212    0.786534
     21          6           0       -2.357522    3.563373   -0.214587
     22          6           0       -2.006989   -1.125465   -2.885796
     23          1           0        0.084042   -1.300087   -2.301956
     24          6           0       -3.180977    0.876437   -2.131233
     25          6           0       -1.668885    4.483833    0.591370
     26          1           0        0.170266    5.026276    1.569225
     27          1           0       -3.397887    3.732109   -0.471969
     28          6           0       -3.154160   -0.339240   -2.841739
     29          1           0       -2.018366   -2.062010   -3.432141
     30          1           0       -4.083718    1.478970   -2.112888
     31          1           0       -2.188237    5.369329    0.943676
     32          1           0       -4.044721   -0.659649   -3.370337
     33          6           0       -0.869645   -0.490896    1.609988
     34          6           0       -0.302495   -2.261038    0.351799
     35          6           0       -0.858178    0.695074    2.339430
     36          6           0       -2.041179   -1.268013    1.467041
     37          6           0        0.392589   -3.193141   -0.433144
     38          6           0       -1.679678   -2.412704    0.654156
     39          6           0       -2.053820    1.096334    2.932601
     40          1           0        0.058837    1.262852    2.461844
     41          6           0       -3.218916   -0.857701    2.087864
     42          6           0       -0.322823   -4.276202   -0.915629
     43          1           0        1.448752   -3.056984   -0.641685
     44          6           0       -2.374569   -3.510226    0.151016
     45          6           0       -3.218572    0.327518    2.818326
     46          1           0       -2.074751    2.014959    3.510664
     47          1           0       -4.117865   -1.463781    2.013846
     48          6           0       -1.690804   -4.435720   -0.633940
     49          1           0        0.184627   -5.023108   -1.520371
     50          1           0       -3.432168   -3.641154    0.358324
     51          1           0       -4.125408    0.648107    3.320994
     52          1           0       -2.220316   -5.296562   -1.028970
     53          7           0        0.138611    1.077454   -0.808435
     54          7           0        0.176430   -1.102942    0.925822
 ---------------------------------------------------------------------

 SCF Done:  E(UM062X) =  -1448.58132698     A.U. after   19 cycles

 Alpha  occ. eigenvalues --  -14.86684 -14.84716 -14.72944 -14.72854 -10.62597
 Alpha  occ. eigenvalues --  -10.62198 -10.61465 -10.61150 -10.60094 -10.60031
 Alpha  occ. eigenvalues --  -10.59534 -10.59335 -10.59163 -10.59146 -10.59121
 Alpha  occ. eigenvalues --  -10.59008 -10.58978 -10.58605 -10.58472 -10.58354
 Alpha  occ. eigenvalues --  -10.58211 -10.57966 -10.57959 -10.57952 -10.57945
 Alpha  occ. eigenvalues --  -10.57748 -10.57632 -10.57618 -10.57560 -10.57540
 Alpha  occ. eigenvalues --  -10.57353 -10.57295 -10.57228 -10.57166 -10.55504
 Alpha  occ. eigenvalues --  -10.55393  -1.15846  -1.13358  -1.00698  -0.98898
 Alpha  occ. eigenvalues --   -0.98812  -0.98156  -0.97698  -0.97553  -0.95708
 Alpha  occ. eigenvalues --   -0.91910  -0.90952  -0.88639  -0.88209  -0.87605
 Alpha  occ. eigenvalues --   -0.87382  -0.85052  -0.84577  -0.83719  -0.83126
 Alpha  occ. eigenvalues --   -0.77752  -0.76131  -0.73876  -0.73291  -0.72703
 Alpha  occ. eigenvalues --   -0.71525  -0.69623  -0.69377  -0.68938  -0.68165
 Alpha  occ. eigenvalues --   -0.65119  -0.64071  -0.62891  -0.61920  -0.61658
 Alpha  occ. eigenvalues --   -0.60676  -0.59425  -0.58686  -0.56236  -0.56088
 Alpha  occ. eigenvalues --   -0.55078  -0.54993  -0.54380  -0.54079  -0.53454
 Alpha  occ. eigenvalues --   -0.53124  -0.52955  -0.52528  -0.52312  -0.51810
 Alpha  occ. eigenvalues --   -0.51490  -0.51135  -0.50683  -0.49098  -0.47351
 Alpha  occ. eigenvalues --   -0.46670  -0.46476  -0.46014  -0.45782  -0.45143
 Alpha  occ. eigenvalues --   -0.44937  -0.44655  -0.43682  -0.43035  -0.42675
 Alpha  occ. eigenvalues --   -0.42416  -0.41803  -0.41564  -0.40520  -0.40391
 Alpha  occ. eigenvalues --   -0.40348  -0.39510  -0.37565  -0.36550  -0.36450
 Alpha  occ. eigenvalues --   -0.36343  -0.34697  -0.33135  -0.32916  -0.30831
 Alpha  occ. eigenvalues --   -0.30169  -0.29300  -0.28564  -0.27686  -0.15144
 Alpha virt. eigenvalues --   -0.03390  -0.02417  -0.00178   0.00315   0.01382
 Alpha virt. eigenvalues --    0.02657   0.03536   0.04669   0.05601   0.09126
 Alpha virt. eigenvalues --    0.10479   0.11376   0.11630   0.12017   0.12236

  Beta  occ. eigenvalues --  -14.86350 -14.84515 -14.72764 -14.72655 -10.62613
  Beta  occ. eigenvalues --  -10.62220 -10.61462 -10.61158 -10.59860 -10.59794
  Beta  occ. eigenvalues --  -10.59480 -10.59258 -10.59138 -10.59132 -10.59090
  Beta  occ. eigenvalues --  -10.58999 -10.58904 -10.58641 -10.58440 -10.58360
  Beta  occ. eigenvalues --  -10.58170 -10.57960 -10.57944 -10.57922 -10.57911
  Beta  occ. eigenvalues --  -10.57748 -10.57702 -10.57638 -10.57544 -10.57527
  Beta  occ. eigenvalues --  -10.57434 -10.57148 -10.57057 -10.56969 -10.55570
  Beta  occ. eigenvalues --  -10.55466  -1.14954  -1.12700  -1.00228  -0.98714
  Beta  occ. eigenvalues --   -0.98336  -0.97813  -0.97585  -0.96986  -0.95219
  Beta  occ. eigenvalues --   -0.91610  -0.90694  -0.88384  -0.87702  -0.87279
  Beta  occ. eigenvalues --   -0.87160  -0.84975  -0.84129  -0.83645  -0.82566
  Beta  occ. eigenvalues --   -0.77260  -0.75861  -0.73472  -0.72955  -0.72377
  Beta  occ. eigenvalues --   -0.71305  -0.69271  -0.69212  -0.68610  -0.68056
  Beta  occ. eigenvalues --   -0.64717  -0.63759  -0.62649  -0.61658  -0.61471
  Beta  occ. eigenvalues --   -0.60460  -0.58327  -0.58246  -0.56030  -0.55876
  Beta  occ. eigenvalues --   -0.54885  -0.54841  -0.53899  -0.53860  -0.52940
  Beta  occ. eigenvalues --   -0.52728  -0.52605  -0.52180  -0.52154  -0.51644
  Beta  occ. eigenvalues --   -0.51356  -0.51036  -0.50575  -0.48638  -0.46387
  Beta  occ. eigenvalues --   -0.46122  -0.45935  -0.45598  -0.45356  -0.44900
  Beta  occ. eigenvalues --   -0.44653  -0.44263  -0.43533  -0.42550  -0.42326
  Beta  occ. eigenvalues --   -0.41799  -0.41323  -0.40820  -0.39907  -0.39717
  Beta  occ. eigenvalues --   -0.38711  -0.37620  -0.36988  -0.36234  -0.36086
  Beta  occ. eigenvalues --   -0.36003  -0.33623  -0.31923  -0.31391  -0.30091
  Beta  occ. eigenvalues --   -0.28797  -0.27058  -0.26209
  Beta virt. eigenvalues --   -0.18264  -0.02864  -0.02058  -0.01237   0.00398
  Beta virt. eigenvalues --    0.00774   0.01664   0.03796   0.04214   0.05236
  Beta virt. eigenvalues --    0.05923   0.10765   0.11273   0.11469   0.12088

 Mulliken charges and spin densities:
               1          2
     1  C    0.146064   0.274205
     2  C    0.176926   0.270353
     3  C   -0.207056  -0.118155
     4  C    0.087251   0.333533
     5  C    0.079752   0.299010
     6  C   -0.190592  -0.112390
     7  H    0.198707   0.003163
     8  H    0.199051   0.002756
     9  C    0.192613  -0.067277
    10  N   -0.490857   0.157542
    11  C    0.188740  -0.075196
    12  N   -0.491313   0.173485
    13  C    0.283830  -0.033227
    14  C    0.273577  -0.034266
    15  C   -0.160004   0.114508
    16  C    0.055237   0.078182
    17  C   -0.151517   0.104084
    18  C    0.055322   0.014891
    19  C   -0.177368  -0.052170
    20  H    0.211489  -0.005720
    21  C   -0.190959  -0.030772
    22  C   -0.166389  -0.024825
    23  H    0.199235  -0.004696
    24  C   -0.190737   0.025015
    25  C   -0.167982   0.124479
    26  H    0.187973   0.001606
    27  H    0.183285   0.000951
    28  C   -0.169431   0.071120
    29  H    0.182873   0.000410
    30  H    0.182007  -0.001592
    31  H    0.181780  -0.006234
    32  H    0.178547  -0.003817
    33  C    0.277007  -0.016179
    34  C    0.277375  -0.011179
    35  C   -0.168585   0.053016
    36  C    0.033881  -0.000031
    37  C   -0.174242   0.064569
    38  C    0.042572   0.056454
    39  C   -0.169516  -0.004476
    40  H    0.184775  -0.002614
    41  C   -0.181619   0.023772
    42  C   -0.180160  -0.030875
    43  H    0.201818  -0.003383
    44  C   -0.185343  -0.023812
    45  C   -0.177362   0.028670
    46  H    0.173027  -0.000174
    47  H    0.174453  -0.001311
    48  C   -0.175827   0.075358
    49  H    0.180414   0.001001
    50  H    0.175473   0.000957
    51  H    0.170881  -0.001630
    52  H    0.174244  -0.003756
    53  N   -0.662641   0.201915
    54  N   -0.680680   0.114756
 Sum of Mulliken charges =  -0.00000   2.00000

 Dipole moment (field-independent basis, Debye):
    X=            -16.8687    Y=              1.1118    Z=             -0.3932  Tot=             16.9099
 Quadrupole moment (field-independent basis, Debye-Ang):
   XX=           -271.1529   YY=           -177.5294   ZZ=           -201.8997
   XY=             -1.0587   XZ=              4.0782   YZ=             18.6173

 Normal termination of Gaussian 16 at Sat Jul 13 22:58:42 2024.
