 Gaussian 16, Revision C.01,
 Gaussian 16:  ES64L-G16RevC.01  3-Jul-2019

 ----------------------------------------------------------------------
 # 6-31g(d) m062x g09default scf=(xqc,maxcycle=64) force guess=read td
 nosymm
 ----------------------------------------------------------------------

 ----------
 Title Card
 ----------
 Symbolic Z-matrix:
 Charge =  0 Multiplicity = 1

                          Input orientation:
 ---------------------------------------------------------------------
 Center     Atomic      Atomic             Coordinates (Angstroms)
 Number     Number       Type             X           Y           Z
 ---------------------------------------------------------------------
      1          6           0        1.405690    0.485791   -0.486148
      2          6           0        1.422707   -0.494687    0.568411
      3          6           0        2.634036   -0.964444    1.023194
      4          6           0        3.847182   -0.492850    0.499390
      5          6           0        3.814939    0.489351   -0.572183
      6          6           0        2.584227    0.959662   -1.026913
      7          1           0        2.649405   -1.737911    1.785050
      8          1           0        2.559808    1.724848   -1.797561
      9          6           0        4.998525    0.968821   -1.190485
     10          7           0        5.949577    1.370726   -1.725274
     11          6           0        5.069523   -0.980104    1.023099
     12          7           0        6.062044   -1.390202    1.469204
     13          6           0       -0.327130    2.248662   -0.278545
     14          6           0       -0.872531    0.483254   -1.545376
     15          6           0        0.369614    3.167817    0.522044
     16          6           0       -1.685431    2.441398   -0.658787
     17          6           0       -0.829929   -0.721813   -2.243947
     18          6           0       -2.037784    1.283770   -1.474108
     19          6           0       -0.328371    4.289490    0.947607
     20          1           0        1.404810    2.990376    0.792091
     21          6           0       -2.357349    3.563431   -0.216577
     22          6           0       -2.006829   -1.124644   -2.886618
     23          1           0        0.085266   -1.297612   -2.303936
     24          6           0       -3.182156    0.874969   -2.129574
     25          6           0       -1.669343    4.483778    0.589212
     26          1           0        0.168882    5.027147    1.568568
     27          1           0       -3.400215    3.729416   -0.470481
     28          6           0       -3.153981   -0.339692   -2.840417
     29          1           0       -2.018761   -2.061454   -3.433085
     30          1           0       -4.087593    1.474241   -2.105015
     31          1           0       -2.189938    5.367411    0.945109
     32          1           0       -4.045614   -0.661070   -3.368480
     33          6           0       -0.868063   -0.493477    1.612928
     34          6           0       -0.301502   -2.260924    0.352074
     35          6           0       -0.855866    0.694535    2.341680
     36          6           0       -2.039718   -1.268272    1.469149
     37          6           0        0.392104   -3.190944   -0.433733
     38          6           0       -1.679408   -2.413008    0.655454
     39          6           0       -2.052547    1.096632    2.932164
     40          1           0        0.061133    1.260224    2.464169
     41          6           0       -3.218879   -0.856062    2.086025
     42          6           0       -0.322752   -4.277300   -0.916691
     43          1           0        1.447324   -3.053898   -0.645550
     44          6           0       -2.373336   -3.511558    0.151590
     45          6           0       -3.217861    0.330492    2.816756
     46          1           0       -2.072170    2.015147    3.510804
     47          1           0       -4.118373   -1.459699    2.009750
     48          6           0       -1.691416   -4.435390   -0.631535
     49          1           0        0.183602   -5.020974   -1.522319
     50          1           0       -3.432641   -3.641173    0.357394
     51          1           0       -4.124739    0.650929    3.318779
     52          1           0       -2.220253   -5.297532   -1.027451
     53          7           0        0.138457    1.077511   -0.810136
     54          7           0        0.177312   -1.104426    0.929423
 ---------------------------------------------------------------------

 SCF Done:  E(RM062X) =  -1448.68830240     A.U. after   10 cycles

 Excitation energies and oscillator strengths:

 Excited state symmetry could not be determined.
 Excited State   1:      Singlet-?Sym    2.8878 eV  429.34 nm  f=0.0095  <S**2>=0.000
     119 ->120         0.68894
 This state for optimization and/or second-order correction.
 Total Energy, E(TD-HF/TD-DFT) =  -1448.58217769
 Copying the excited state density for this state as the 1-particle RhoCI density.

 Excited state symmetry could not be determined.
 Excited State   2:      Singlet-?Sym    3.1629 eV  392.00 nm  f=0.0204  <S**2>=0.000
     118 ->120         0.68794

 Excited state symmetry could not be determined.
 Excited State   3:      Singlet-?Sym    3.5949 eV  344.89 nm  f=0.0020  <S**2>=0.000
     117 ->120         0.69508

 Alpha  occ. eigenvalues --  -14.82723 -14.82513 -14.79622 -14.79605 -10.65614
 Alpha  occ. eigenvalues --  -10.65553 -10.65320 -10.65230 -10.62062 -10.62014
 Alpha  occ. eigenvalues --  -10.61615 -10.61597 -10.60034 -10.59968 -10.59688
 Alpha  occ. eigenvalues --  -10.59603 -10.56253 -10.56127 -10.56058 -10.56052
 Alpha  occ. eigenvalues --  -10.55993 -10.55983 -10.55922 -10.55913 -10.55835
 Alpha  occ. eigenvalues --  -10.55809 -10.55799 -10.55682 -10.55671 -10.55643
 Alpha  occ. eigenvalues --  -10.55518 -10.55420 -10.55273 -10.55147 -10.54945
 Alpha  occ. eigenvalues --  -10.54857  -1.13891  -1.11631  -1.05260  -1.03492
 Alpha  occ. eigenvalues --   -1.01823  -0.96841  -0.96252  -0.95845  -0.95525
 Alpha  occ. eigenvalues --   -0.92294  -0.91774  -0.88353  -0.87651  -0.85716
 Alpha  occ. eigenvalues --   -0.85303  -0.83700  -0.82604  -0.81953  -0.81797
 Alpha  occ. eigenvalues --   -0.78814  -0.76956  -0.73319  -0.73035  -0.70036
 Alpha  occ. eigenvalues --   -0.69985  -0.69744  -0.69126  -0.66581  -0.66316
 Alpha  occ. eigenvalues --   -0.66223  -0.63675  -0.62315  -0.61386  -0.60154
 Alpha  occ. eigenvalues --   -0.59743  -0.59001  -0.58467  -0.56314  -0.55897
 Alpha  occ. eigenvalues --   -0.53881  -0.53510  -0.53118  -0.53102  -0.52699
 Alpha  occ. eigenvalues --   -0.52515  -0.51399  -0.51291  -0.50704  -0.50600
 Alpha  occ. eigenvalues --   -0.49356  -0.49243  -0.49172  -0.49093  -0.48640
 Alpha  occ. eigenvalues --   -0.48468  -0.46223  -0.46073  -0.45288  -0.44080
 Alpha  occ. eigenvalues --   -0.43727  -0.43455  -0.43256  -0.43028  -0.42645
 Alpha  occ. eigenvalues --   -0.42230  -0.42203  -0.42132  -0.40717  -0.40590
 Alpha  occ. eigenvalues --   -0.40369  -0.40142  -0.39769  -0.39439  -0.36500
 Alpha  occ. eigenvalues --   -0.34578  -0.34401  -0.34036  -0.31846  -0.30499
 Alpha  occ. eigenvalues --   -0.27366  -0.26653  -0.26407  -0.25088
 Alpha virt. eigenvalues --   -0.08044  -0.03945  -0.00516  -0.00273   0.02742
 Alpha virt. eigenvalues --    0.03541   0.04573   0.05344   0.05721   0.05991
 Alpha virt. eigenvalues --    0.07037   0.07445   0.07737   0.10860   0.11005

 Mulliken charges:
               1
     1  C    0.214879
     2  C    0.233574
     3  C   -0.198619
     4  C    0.134187
     5  C    0.125357
     6  C   -0.179488
     7  H    0.233942
     8  H    0.237329
     9  C    0.234208
    10  N   -0.438743
    11  C    0.231513
    12  N   -0.438773
    13  C    0.289191
    14  C    0.277349
    15  C   -0.185191
    16  C    0.043113
    17  C   -0.168523
    18  C    0.049846
    19  C   -0.172828
    20  H    0.158559
    21  C   -0.191952
    22  C   -0.165860
    23  H    0.159153
    24  C   -0.196383
    25  C   -0.187316
    26  H    0.166569
    27  H    0.170266
    28  C   -0.182187
    29  H    0.165745
    30  H    0.167016
    31  H    0.159791
    32  H    0.159202
    33  C    0.282556
    34  C    0.284196
    35  C   -0.166663
    36  C    0.035853
    37  C   -0.185189
    38  C    0.038338
    39  C   -0.167575
    40  H    0.159192
    41  C   -0.184185
    42  C   -0.175366
    43  H    0.159569
    44  C   -0.181151
    45  C   -0.180952
    46  H    0.165688
    47  H    0.166581
    48  C   -0.185533
    49  H    0.166882
    50  H    0.170133
    51  H    0.161429
    52  H    0.161924
    53  N   -0.715446
    54  N   -0.715208
 Sum of Mulliken charges =  -0.00000

 Dipole moment (field-independent basis, Debye):
    X=             -5.4762    Y=             -0.0505    Z=              0.2200  Tot=              5.4808
 Quadrupole moment (field-independent basis, Debye-Ang):
   XX=           -236.4065   YY=           -193.8763   ZZ=           -206.0573
   XY=              0.1596   XZ=              1.5758   YZ=             13.5512

 Normal termination of Gaussian 16 at Sat Jul 13 23:19:56 2024.
