 Gaussian 16, Revision C.01,
 Gaussian 16:  ES64L-G16RevC.01  3-Jul-2019

 ----------------------------------------------------------------------
 # 6-31g(d) m062x g09default scf=(xqc,maxcycle=64) force guess=read nos
 ymm
 ----------------------------------------------------------------------

 ----------
 Title Card
 ----------
 Symbolic Z-matrix:
 Charge =  0 Multiplicity = 3

                          Input orientation:
 ---------------------------------------------------------------------
 Center     Atomic      Atomic             Coordinates (Angstroms)
 Number     Number       Type             X           Y           Z
 ---------------------------------------------------------------------
      1          6           0        1.405690    0.485791   -0.486148
      2          6           0        1.422707   -0.494687    0.568411
      3          6           0        2.634036   -0.964444    1.023194
      4          6           0        3.847182   -0.492850    0.499390
      5          6           0        3.814939    0.489351   -0.572183
      6          6           0        2.584227    0.959662   -1.026913
      7          1           0        2.649405   -1.737911    1.785050
      8          1           0        2.559808    1.724848   -1.797561
      9          6           0        4.998525    0.968821   -1.190485
     10          7           0        5.949577    1.370726   -1.725274
     11          6           0        5.069523   -0.980104    1.023099
     12          7           0        6.062044   -1.390202    1.469204
     13          6           0       -0.327130    2.248662   -0.278545
     14          6           0       -0.872531    0.483254   -1.545376
     15          6           0        0.369614    3.167817    0.522044
     16          6           0       -1.685431    2.441398   -0.658787
     17          6           0       -0.829929   -0.721813   -2.243947
     18          6           0       -2.037784    1.283770   -1.474108
     19          6           0       -0.328371    4.289490    0.947607
     20          1           0        1.404810    2.990376    0.792091
     21          6           0       -2.357349    3.563431   -0.216577
     22          6           0       -2.006829   -1.124644   -2.886618
     23          1           0        0.085266   -1.297612   -2.303936
     24          6           0       -3.182156    0.874969   -2.129574
     25          6           0       -1.669343    4.483778    0.589212
     26          1           0        0.168882    5.027147    1.568568
     27          1           0       -3.400215    3.729416   -0.470481
     28          6           0       -3.153981   -0.339692   -2.840417
     29          1           0       -2.018761   -2.061454   -3.433085
     30          1           0       -4.087593    1.474241   -2.105015
     31          1           0       -2.189938    5.367411    0.945109
     32          1           0       -4.045614   -0.661070   -3.368480
     33          6           0       -0.868063   -0.493477    1.612928
     34          6           0       -0.301502   -2.260924    0.352074
     35          6           0       -0.855866    0.694535    2.341680
     36          6           0       -2.039718   -1.268272    1.469149
     37          6           0        0.392104   -3.190944   -0.433733
     38          6           0       -1.679408   -2.413008    0.655454
     39          6           0       -2.052547    1.096632    2.932164
     40          1           0        0.061133    1.260224    2.464169
     41          6           0       -3.218879   -0.856062    2.086025
     42          6           0       -0.322752   -4.277300   -0.916691
     43          1           0        1.447324   -3.053898   -0.645550
     44          6           0       -2.373336   -3.511558    0.151590
     45          6           0       -3.217861    0.330492    2.816756
     46          1           0       -2.072170    2.015147    3.510804
     47          1           0       -4.118373   -1.459699    2.009750
     48          6           0       -1.691416   -4.435390   -0.631535
     49          1           0        0.183602   -5.020974   -1.522319
     50          1           0       -3.432641   -3.641173    0.357394
     51          1           0       -4.124739    0.650929    3.318779
     52          1           0       -2.220253   -5.297532   -1.027451
     53          7           0        0.138457    1.077511   -0.810136
     54          7           0        0.177312   -1.104426    0.929423
 ---------------------------------------------------------------------

 SCF Done:  E(UM062X) =  -1448.58114273     A.U. after   21 cycles

 Alpha  occ. eigenvalues --  -14.86724 -14.84673 -14.72949 -14.72813 -10.62627
 Alpha  occ. eigenvalues --  -10.62222 -10.61436 -10.61132 -10.60062 -10.60003
 Alpha  occ. eigenvalues --  -10.59563 -10.59372 -10.59200 -10.59183 -10.59147
 Alpha  occ. eigenvalues --  -10.59040 -10.59014 -10.58635 -10.58505 -10.58380
 Alpha  occ. eigenvalues --  -10.58203 -10.57961 -10.57948 -10.57946 -10.57915
 Alpha  occ. eigenvalues --  -10.57728 -10.57620 -10.57595 -10.57538 -10.57530
 Alpha  occ. eigenvalues --  -10.57309 -10.57265 -10.57186 -10.57161 -10.55505
 Alpha  occ. eigenvalues --  -10.55354  -1.15853  -1.13361  -1.00694  -0.98944
 Alpha  occ. eigenvalues --   -0.98819  -0.98143  -0.97679  -0.97534  -0.95695
 Alpha  occ. eigenvalues --   -0.91929  -0.90928  -0.88677  -0.88215  -0.87586
 Alpha  occ. eigenvalues --   -0.87385  -0.85085  -0.84582  -0.83699  -0.83122
 Alpha  occ. eigenvalues --   -0.77761  -0.76124  -0.73882  -0.73296  -0.72713
 Alpha  occ. eigenvalues --   -0.71507  -0.69633  -0.69400  -0.68919  -0.68170
 Alpha  occ. eigenvalues --   -0.65122  -0.64060  -0.62914  -0.61932  -0.61658
 Alpha  occ. eigenvalues --   -0.60666  -0.59420  -0.58684  -0.56262  -0.56103
 Alpha  occ. eigenvalues --   -0.55072  -0.54974  -0.54387  -0.54093  -0.53482
 Alpha  occ. eigenvalues --   -0.53121  -0.52940  -0.52530  -0.52352  -0.51818
 Alpha  occ. eigenvalues --   -0.51482  -0.51122  -0.50678  -0.49089  -0.47332
 Alpha  occ. eigenvalues --   -0.46669  -0.46510  -0.46032  -0.45788  -0.45127
 Alpha  occ. eigenvalues --   -0.44925  -0.44648  -0.43705  -0.43037  -0.42708
 Alpha  occ. eigenvalues --   -0.42402  -0.41784  -0.41566  -0.40510  -0.40374
 Alpha  occ. eigenvalues --   -0.40325  -0.39493  -0.37598  -0.36529  -0.36422
 Alpha  occ. eigenvalues --   -0.36319  -0.34733  -0.33127  -0.32903  -0.30804
 Alpha  occ. eigenvalues --   -0.30195  -0.29322  -0.28553  -0.27686  -0.15133
 Alpha virt. eigenvalues --   -0.03412  -0.02420  -0.00193   0.00336   0.01405
 Alpha virt. eigenvalues --    0.02627   0.03549   0.04650   0.05597   0.09114
 Alpha virt. eigenvalues --    0.10493   0.11341   0.11646   0.11984   0.12245

  Beta  occ. eigenvalues --  -14.86386 -14.84475 -14.72770 -14.72614 -10.62644
  Beta  occ. eigenvalues --  -10.62243 -10.61432 -10.61139 -10.59828 -10.59766
  Beta  occ. eigenvalues --  -10.59510 -10.59295 -10.59169 -10.59163 -10.59126
  Beta  occ. eigenvalues --  -10.59030 -10.58940 -10.58670 -10.58471 -10.58387
  Beta  occ. eigenvalues --  -10.58162 -10.57947 -10.57930 -10.57906 -10.57905
  Beta  occ. eigenvalues --  -10.57729 -10.57678 -10.57632 -10.57534 -10.57500
  Beta  occ. eigenvalues --  -10.57390 -10.57143 -10.57031 -10.56926 -10.55570
  Beta  occ. eigenvalues --  -10.55427  -1.14956  -1.12708  -1.00225  -0.98759
  Beta  occ. eigenvalues --   -0.98344  -0.97800  -0.97566  -0.96970  -0.95207
  Beta  occ. eigenvalues --   -0.91629  -0.90671  -0.88418  -0.87706  -0.87264
  Beta  occ. eigenvalues --   -0.87160  -0.85008  -0.84130  -0.83626  -0.82565
  Beta  occ. eigenvalues --   -0.77270  -0.75854  -0.73478  -0.72957  -0.72386
  Beta  occ. eigenvalues --   -0.71288  -0.69282  -0.69233  -0.68587  -0.68064
  Beta  occ. eigenvalues --   -0.64720  -0.63748  -0.62670  -0.61669  -0.61473
  Beta  occ. eigenvalues --   -0.60451  -0.58318  -0.58249  -0.56053  -0.55888
  Beta  occ. eigenvalues --   -0.54884  -0.54819  -0.53909  -0.53877  -0.52935
  Beta  occ. eigenvalues --   -0.52745  -0.52592  -0.52194  -0.52181  -0.51645
  Beta  occ. eigenvalues --   -0.51352  -0.51023  -0.50573  -0.48633  -0.46392
  Beta  occ. eigenvalues --   -0.46128  -0.45961  -0.45592  -0.45349  -0.44896
  Beta  occ. eigenvalues --   -0.44637  -0.44259  -0.43558  -0.42566  -0.42313
  Beta  occ. eigenvalues --   -0.41804  -0.41321  -0.40815  -0.39902  -0.39696
  Beta  occ. eigenvalues --   -0.38699  -0.37616  -0.37018  -0.36216  -0.36062
  Beta  occ. eigenvalues --   -0.35980  -0.33639  -0.31928  -0.31366  -0.30118
  Beta  occ. eigenvalues --   -0.28780  -0.27050  -0.26204
  Beta virt. eigenvalues --   -0.18281  -0.02880  -0.02059  -0.01236   0.00388
  Beta virt. eigenvalues --    0.00791   0.01683   0.03780   0.04216   0.05225
  Beta virt. eigenvalues --    0.05918   0.10773   0.11262   0.11431   0.12090

 Mulliken charges and spin densities:
               1          2
     1  C    0.143792   0.275391
     2  C    0.175845   0.268651
     3  C   -0.207148  -0.117846
     4  C    0.087860   0.333974
     5  C    0.080378   0.295156
     6  C   -0.190162  -0.111830
     7  H    0.198198   0.003151
     8  H    0.198681   0.002722
     9  C    0.192403  -0.066613
    10  N   -0.491125   0.155978
    11  C    0.188107  -0.075151
    12  N   -0.491308   0.173479
    13  C    0.284168  -0.033522
    14  C    0.273798  -0.034657
    15  C   -0.159709   0.115401
    16  C    0.055606   0.078215
    17  C   -0.150857   0.106025
    18  C    0.055092   0.015589
    19  C   -0.177408  -0.052591
    20  H    0.211827  -0.005802
    21  C   -0.191232  -0.030541
    22  C   -0.166219  -0.025644
    23  H    0.199560  -0.004754
    24  C   -0.190104   0.024908
    25  C   -0.167886   0.125553
    26  H    0.188178   0.001618
    27  H    0.183457   0.000931
    28  C   -0.169382   0.072626
    29  H    0.183107   0.000433
    30  H    0.182262  -0.001594
    31  H    0.181948  -0.006291
    32  H    0.178688  -0.003894
    33  C    0.277197  -0.016106
    34  C    0.278423  -0.010798
    35  C   -0.168258   0.053207
    36  C    0.033737  -0.000194
    37  C   -0.175715   0.063675
    38  C    0.041407   0.056063
    39  C   -0.169504  -0.004508
    40  H    0.184678  -0.002605
    41  C   -0.181837   0.024066
    42  C   -0.179938  -0.030582
    43  H    0.201546  -0.003366
    44  C   -0.184456  -0.023391
    45  C   -0.177396   0.028681
    46  H    0.172764  -0.000175
    47  H    0.174506  -0.001323
    48  C   -0.176180   0.074014
    49  H    0.180588   0.000994
    50  H    0.175223   0.000945
    51  H    0.170853  -0.001631
    52  H    0.173926  -0.003697
    53  N   -0.661857   0.204029
    54  N   -0.680118   0.113634
 Sum of Mulliken charges =  -0.00000   2.00000

 Dipole moment (field-independent basis, Debye):
    X=            -16.9098    Y=              1.1592    Z=             -0.4240  Tot=             16.9548
 Quadrupole moment (field-independent basis, Debye-Ang):
   XX=           -271.2034   YY=           -177.5755   ZZ=           -201.8432
   XY=             -1.0883   XZ=              4.0666   YZ=             18.6916

 Normal termination of Gaussian 16 at Sat Jul 13 23:10:28 2024.
