 Gaussian 16, Revision C.01,
 Gaussian 16:  ES64L-G16RevC.01  3-Jul-2019

 ----------------------------------------------------------------------
 # 6-31g(d) m062x g09default scf=(xqc,maxcycle=64) force guess=read td
 nosymm
 ----------------------------------------------------------------------

 ----------
 Title Card
 ----------
 Symbolic Z-matrix:
 Charge =  0 Multiplicity = 1

                          Input orientation:
 ---------------------------------------------------------------------
 Center     Atomic      Atomic             Coordinates (Angstroms)
 Number     Number       Type             X           Y           Z
 ---------------------------------------------------------------------
      1          6           0        1.405022    0.487961   -0.485815
      2          6           0        1.422776   -0.495435    0.567267
      3          6           0        2.633920   -0.965968    1.022566
      4          6           0        3.846949   -0.493365    0.500478
      5          6           0        3.815667    0.489654   -0.574248
      6          6           0        2.583757    0.962470   -1.025358
      7          1           0        2.650984   -1.738317    1.785810
      8          1           0        2.558625    1.727120   -1.796453
      9          6           0        4.999462    0.967950   -1.192619
     10          7           0        5.949567    1.371162   -1.728084
     11          6           0        5.069767   -0.980006    1.024260
     12          7           0        6.063277   -1.389381    1.469912
     13          6           0       -0.327805    2.248910   -0.276477
     14          6           0       -0.873550    0.480483   -1.542392
     15          6           0        0.369102    3.166394    0.523912
     16          6           0       -1.685187    2.438395   -0.654322
     17          6           0       -0.830900   -0.722323   -2.244018
     18          6           0       -2.037216    1.282798   -1.472608
     19          6           0       -0.328833    4.288340    0.949278
     20          1           0        1.406911    2.993412    0.786858
     21          6           0       -2.357512    3.563467   -0.214226
     22          6           0       -2.006709   -1.125228   -2.885719
     23          1           0        0.083723   -1.299775   -2.302018
     24          6           0       -3.181053    0.875525   -2.131915
     25          6           0       -1.669333    4.483330    0.589985
     26          1           0        0.170111    5.025832    1.568835
     27          1           0       -3.398296    3.732276   -0.472312
     28          6           0       -3.154955   -0.339265   -2.840653
     29          1           0       -2.017184   -2.061635   -3.432627
     30          1           0       -4.084519    1.477315   -2.110106
     31          1           0       -2.188223    5.368323    0.943442
     32          1           0       -4.045608   -0.661437   -3.369042
     33          6           0       -0.870078   -0.490811    1.610211
     34          6           0       -0.302074   -2.260398    0.350393
     35          6           0       -0.857188    0.694577    2.341237
     36          6           0       -2.040955   -1.268311    1.468780
     37          6           0        0.392040   -3.190883   -0.435214
     38          6           0       -1.679496   -2.412035    0.652862
     39          6           0       -2.053875    1.096146    2.933111
     40          1           0        0.059391    1.261566    2.462983
     41          6           0       -3.218290   -0.858387    2.088115
     42          6           0       -0.323012   -4.276394   -0.916828
     43          1           0        1.448758   -3.057537   -0.642477
     44          6           0       -2.374198   -3.509999    0.151478
     45          6           0       -3.218110    0.328732    2.818326
     46          1           0       -2.073796    2.014956    3.510302
     47          1           0       -4.118892   -1.461273    2.012342
     48          6           0       -1.690880   -4.435272   -0.632689
     49          1           0        0.184375   -5.021848   -1.520573
     50          1           0       -3.432040   -3.641176    0.359195
     51          1           0       -4.125349    0.650293    3.319124
     52          1           0       -2.219633   -5.296332   -1.028449
     53          7           0        0.138708    1.076277   -0.809164
     54          7           0        0.175544   -1.102162    0.925533
 ---------------------------------------------------------------------

 SCF Done:  E(RM062X) =  -1448.68852861     A.U. after   10 cycles

 Excitation energies and oscillator strengths:

 Excited state symmetry could not be determined.
 Excited State   1:      Singlet-?Sym    2.8899 eV  429.03 nm  f=0.0098  <S**2>=0.000
     119 ->120         0.68912
 This state for optimization and/or second-order correction.
 Total Energy, E(TD-HF/TD-DFT) =  -1448.58232702
 Copying the excited state density for this state as the 1-particle RhoCI density.

 Excited state symmetry could not be determined.
 Excited State   2:      Singlet-?Sym    3.1592 eV  392.45 nm  f=0.0213  <S**2>=0.000
     118 ->120         0.68781

 Excited state symmetry could not be determined.
 Excited State   3:      Singlet-?Sym    3.5949 eV  344.89 nm  f=0.0020  <S**2>=0.000
     117 ->120         0.69521

 Alpha  occ. eigenvalues --  -14.82709 -14.82492 -14.79618 -14.79594 -10.65592
 Alpha  occ. eigenvalues --  -10.65524 -10.65323 -10.65238 -10.62055 -10.62000
 Alpha  occ. eigenvalues --  -10.61613 -10.61588 -10.60038 -10.59959 -10.59692
 Alpha  occ. eigenvalues --  -10.59602 -10.56245 -10.56137 -10.56058 -10.56039
 Alpha  occ. eigenvalues --  -10.56008 -10.55980 -10.55933 -10.55929 -10.55838
 Alpha  occ. eigenvalues --  -10.55815 -10.55790 -10.55669 -10.55668 -10.55646
 Alpha  occ. eigenvalues --  -10.55512 -10.55420 -10.55270 -10.55152 -10.54943
 Alpha  occ. eigenvalues --  -10.54865  -1.13877  -1.11597  -1.05219  -1.03472
 Alpha  occ. eigenvalues --   -1.01789  -0.96834  -0.96261  -0.95861  -0.95543
 Alpha  occ. eigenvalues --   -0.92276  -0.91747  -0.88359  -0.87646  -0.85715
 Alpha  occ. eigenvalues --   -0.85311  -0.83706  -0.82611  -0.81958  -0.81813
 Alpha  occ. eigenvalues --   -0.78805  -0.76936  -0.73322  -0.73020  -0.70024
 Alpha  occ. eigenvalues --   -0.69960  -0.69743  -0.69142  -0.66590  -0.66306
 Alpha  occ. eigenvalues --   -0.66235  -0.63683  -0.62289  -0.61377  -0.60155
 Alpha  occ. eigenvalues --   -0.59737  -0.59009  -0.58461  -0.56308  -0.55894
 Alpha  occ. eigenvalues --   -0.53866  -0.53500  -0.53130  -0.53112  -0.52694
 Alpha  occ. eigenvalues --   -0.52507  -0.51404  -0.51292  -0.50696  -0.50604
 Alpha  occ. eigenvalues --   -0.49339  -0.49232  -0.49177  -0.49118  -0.48646
 Alpha  occ. eigenvalues --   -0.48461  -0.46212  -0.46066  -0.45275  -0.44067
 Alpha  occ. eigenvalues --   -0.43742  -0.43456  -0.43250  -0.43036  -0.42647
 Alpha  occ. eigenvalues --   -0.42240  -0.42196  -0.42114  -0.40719  -0.40603
 Alpha  occ. eigenvalues --   -0.40366  -0.40137  -0.39781  -0.39436  -0.36485
 Alpha  occ. eigenvalues --   -0.34568  -0.34401  -0.34002  -0.31848  -0.30509
 Alpha  occ. eigenvalues --   -0.27380  -0.26657  -0.26404  -0.25106
 Alpha virt. eigenvalues --   -0.08051  -0.03922  -0.00506  -0.00287   0.02740
 Alpha virt. eigenvalues --    0.03542   0.04574   0.05352   0.05710   0.05970
 Alpha virt. eigenvalues --    0.07054   0.07443   0.07728   0.10885   0.11025

 Mulliken charges:
               1
     1  C    0.216215
     2  C    0.233734
     3  C   -0.198578
     4  C    0.133230
     5  C    0.125507
     6  C   -0.180172
     7  H    0.234030
     8  H    0.237031
     9  C    0.234307
    10  N   -0.438806
    11  C    0.231617
    12  N   -0.439106
    13  C    0.288933
    14  C    0.277628
    15  C   -0.185414
    16  C    0.042373
    17  C   -0.167606
    18  C    0.049347
    19  C   -0.173059
    20  H    0.159131
    21  C   -0.190916
    22  C   -0.166298
    23  H    0.159216
    24  C   -0.196139
    25  C   -0.187046
    26  H    0.166607
    27  H    0.170385
    28  C   -0.182101
    29  H    0.165736
    30  H    0.166879
    31  H    0.159924
    32  H    0.159397
    33  C    0.282562
    34  C    0.284553
    35  C   -0.167006
    36  C    0.037198
    37  C   -0.185229
    38  C    0.038406
    39  C   -0.167622
    40  H    0.159308
    41  C   -0.185194
    42  C   -0.175100
    43  H    0.159934
    44  C   -0.181775
    45  C   -0.180811
    46  H    0.165733
    47  H    0.166580
    48  C   -0.185788
    49  H    0.166744
    50  H    0.170269
    51  H    0.161371
    52  H    0.161922
    53  N   -0.716121
    54  N   -0.715921
 Sum of Mulliken charges =  -0.00000

 Dipole moment (field-independent basis, Debye):
    X=             -5.4981    Y=             -0.0343    Z=              0.2196  Tot=              5.5026
 Quadrupole moment (field-independent basis, Debye-Ang):
   XX=           -236.4926   YY=           -193.7291   ZZ=           -206.0827
   XY=              0.1330   XZ=              1.6161   YZ=             13.5128

 Normal termination of Gaussian 16 at Sat Jul 13 23:31:32 2024.
