 Gaussian 16, Revision C.01,
 Gaussian 16:  ES64L-G16RevC.01  3-Jul-2019

 ----------------------------------------------------------------------
 # 6-31g(d) m062x g09default scf=(xqc,maxcycle=64) force guess=read nos
 ymm
 ----------------------------------------------------------------------

 ----------
 Title Card
 ----------
 Symbolic Z-matrix:
 Charge =  0 Multiplicity = 3

                          Input orientation:
 ---------------------------------------------------------------------
 Center     Atomic      Atomic             Coordinates (Angstroms)
 Number     Number       Type             X           Y           Z
 ---------------------------------------------------------------------
      1          6           0        1.405022    0.487961   -0.485815
      2          6           0        1.422776   -0.495435    0.567267
      3          6           0        2.633920   -0.965968    1.022566
      4          6           0        3.846949   -0.493365    0.500478
      5          6           0        3.815667    0.489654   -0.574248
      6          6           0        2.583757    0.962470   -1.025358
      7          1           0        2.650984   -1.738317    1.785810
      8          1           0        2.558625    1.727120   -1.796453
      9          6           0        4.999462    0.967950   -1.192619
     10          7           0        5.949567    1.371162   -1.728084
     11          6           0        5.069767   -0.980006    1.024260
     12          7           0        6.063277   -1.389381    1.469912
     13          6           0       -0.327805    2.248910   -0.276477
     14          6           0       -0.873550    0.480483   -1.542392
     15          6           0        0.369102    3.166394    0.523912
     16          6           0       -1.685187    2.438395   -0.654322
     17          6           0       -0.830900   -0.722323   -2.244018
     18          6           0       -2.037216    1.282798   -1.472608
     19          6           0       -0.328833    4.288340    0.949278
     20          1           0        1.406911    2.993412    0.786858
     21          6           0       -2.357512    3.563467   -0.214226
     22          6           0       -2.006709   -1.125228   -2.885719
     23          1           0        0.083723   -1.299775   -2.302018
     24          6           0       -3.181053    0.875525   -2.131915
     25          6           0       -1.669333    4.483330    0.589985
     26          1           0        0.170111    5.025832    1.568835
     27          1           0       -3.398296    3.732276   -0.472312
     28          6           0       -3.154955   -0.339265   -2.840653
     29          1           0       -2.017184   -2.061635   -3.432627
     30          1           0       -4.084519    1.477315   -2.110106
     31          1           0       -2.188223    5.368323    0.943442
     32          1           0       -4.045608   -0.661437   -3.369042
     33          6           0       -0.870078   -0.490811    1.610211
     34          6           0       -0.302074   -2.260398    0.350393
     35          6           0       -0.857188    0.694577    2.341237
     36          6           0       -2.040955   -1.268311    1.468780
     37          6           0        0.392040   -3.190883   -0.435214
     38          6           0       -1.679496   -2.412035    0.652862
     39          6           0       -2.053875    1.096146    2.933111
     40          1           0        0.059391    1.261566    2.462983
     41          6           0       -3.218290   -0.858387    2.088115
     42          6           0       -0.323012   -4.276394   -0.916828
     43          1           0        1.448758   -3.057537   -0.642477
     44          6           0       -2.374198   -3.509999    0.151478
     45          6           0       -3.218110    0.328732    2.818326
     46          1           0       -2.073796    2.014956    3.510302
     47          1           0       -4.118892   -1.461273    2.012342
     48          6           0       -1.690880   -4.435272   -0.632689
     49          1           0        0.184375   -5.021848   -1.520573
     50          1           0       -3.432040   -3.641176    0.359195
     51          1           0       -4.125349    0.650293    3.319124
     52          1           0       -2.219633   -5.296332   -1.028449
     53          7           0        0.138708    1.076277   -0.809164
     54          7           0        0.175544   -1.102162    0.925533
 ---------------------------------------------------------------------

 SCF Done:  E(UM062X) =  -1448.58154616     A.U. after   20 cycles

 Alpha  occ. eigenvalues --  -14.86543 -14.84813 -14.73005 -14.72911 -10.62492
 Alpha  occ. eigenvalues --  -10.62124 -10.61513 -10.61198 -10.60119 -10.60066
 Alpha  occ. eigenvalues --  -10.59433 -10.59228 -10.59066 -10.59064 -10.59031
 Alpha  occ. eigenvalues --  -10.58933 -10.58852 -10.58525 -10.58396 -10.58285
 Alpha  occ. eigenvalues --  -10.58271 -10.58025 -10.58008 -10.57998 -10.57985
 Alpha  occ. eigenvalues --  -10.57799 -10.57679 -10.57618 -10.57608 -10.57560
 Alpha  occ. eigenvalues --  -10.57392 -10.57354 -10.57294 -10.57218 -10.55555
 Alpha  occ. eigenvalues --  -10.55443  -1.15752  -1.13401  -1.00688  -0.98857
 Alpha  occ. eigenvalues --   -0.98793  -0.98187  -0.97750  -0.97596  -0.95715
 Alpha  occ. eigenvalues --   -0.91847  -0.90989  -0.88576  -0.88185  -0.87638
 Alpha  occ. eigenvalues --   -0.87439  -0.84969  -0.84577  -0.83776  -0.83127
 Alpha  occ. eigenvalues --   -0.77728  -0.76150  -0.73863  -0.73243  -0.72675
 Alpha  occ. eigenvalues --   -0.71579  -0.69605  -0.69330  -0.68953  -0.68219
 Alpha  occ. eigenvalues --   -0.65098  -0.64103  -0.62805  -0.61868  -0.61722
 Alpha  occ. eigenvalues --   -0.60690  -0.59425  -0.58691  -0.56207  -0.56008
 Alpha  occ. eigenvalues --   -0.55088  -0.55037  -0.54330  -0.54037  -0.53414
 Alpha  occ. eigenvalues --   -0.53150  -0.52968  -0.52571  -0.52253  -0.51790
 Alpha  occ. eigenvalues --   -0.51476  -0.51192  -0.50730  -0.49138  -0.47362
 Alpha  occ. eigenvalues --   -0.46622  -0.46451  -0.45952  -0.45736  -0.45180
 Alpha  occ. eigenvalues --   -0.44973  -0.44672  -0.43597  -0.42985  -0.42629
 Alpha  occ. eigenvalues --   -0.42468  -0.41828  -0.41619  -0.40559  -0.40441
 Alpha  occ. eigenvalues --   -0.40398  -0.39530  -0.37478  -0.36587  -0.36482
 Alpha  occ. eigenvalues --   -0.36377  -0.34664  -0.33167  -0.32935  -0.30846
 Alpha  occ. eigenvalues --   -0.30108  -0.29254  -0.28604  -0.27721  -0.15224
 Alpha virt. eigenvalues --   -0.03316  -0.02452  -0.00088   0.00300   0.01349
 Alpha virt. eigenvalues --    0.02731   0.03497   0.04726   0.05554   0.09071
 Alpha virt. eigenvalues --    0.10425   0.11406   0.11561   0.12048   0.12224

  Beta  occ. eigenvalues --  -14.86216 -14.84605 -14.72823 -14.72711 -10.62507
  Beta  occ. eigenvalues --  -10.62145 -10.61510 -10.61206 -10.59885 -10.59828
  Beta  occ. eigenvalues --  -10.59381 -10.59155 -10.59052 -10.59048 -10.58993
  Beta  occ. eigenvalues --  -10.58923 -10.58780 -10.58559 -10.58367 -10.58289
  Beta  occ. eigenvalues --  -10.58230 -10.58001 -10.57993 -10.57981 -10.57956
  Beta  occ. eigenvalues --  -10.57798 -10.57702 -10.57684 -10.57576 -10.57565
  Beta  occ. eigenvalues --  -10.57466 -10.57198 -10.57119 -10.57038 -10.55622
  Beta  occ. eigenvalues --  -10.55517  -1.14875  -1.12725  -1.00216  -0.98667
  Beta  occ. eigenvalues --   -0.98325  -0.97845  -0.97634  -0.97026  -0.95221
  Beta  occ. eigenvalues --   -0.91548  -0.90729  -0.88328  -0.87685  -0.87308
  Beta  occ. eigenvalues --   -0.87209  -0.84893  -0.84139  -0.83699  -0.82558
  Beta  occ. eigenvalues --   -0.77228  -0.75886  -0.73460  -0.72912  -0.72350
  Beta  occ. eigenvalues --   -0.71354  -0.69259  -0.69160  -0.68628  -0.68107
  Beta  occ. eigenvalues --   -0.64699  -0.63790  -0.62565  -0.61609  -0.61533
  Beta  occ. eigenvalues --   -0.60476  -0.58316  -0.58260  -0.56006  -0.55800
  Beta  occ. eigenvalues --   -0.54890  -0.54881  -0.53858  -0.53811  -0.52955
  Beta  occ. eigenvalues --   -0.52724  -0.52603  -0.52193  -0.52099  -0.51647
  Beta  occ. eigenvalues --   -0.51336  -0.51090  -0.50622  -0.48678  -0.46319
  Beta  occ. eigenvalues --   -0.46100  -0.45921  -0.45579  -0.45341  -0.44932
  Beta  occ. eigenvalues --   -0.44677  -0.44271  -0.43457  -0.42508  -0.42381
  Beta  occ. eigenvalues --   -0.41816  -0.41297  -0.40851  -0.39939  -0.39765
  Beta  occ. eigenvalues --   -0.38752  -0.37619  -0.36920  -0.36268  -0.36112
  Beta  occ. eigenvalues --   -0.36034  -0.33623  -0.31928  -0.31412  -0.30020
  Beta  occ. eigenvalues --   -0.28843  -0.27037  -0.26212
  Beta virt. eigenvalues --   -0.18265  -0.02811  -0.02085  -0.01292   0.00473
  Beta virt. eigenvalues --    0.00768   0.01635   0.03838   0.04199   0.05276
  Beta virt. eigenvalues --    0.05885   0.10712   0.11245   0.11501   0.12038

 Mulliken charges and spin densities:
               1          2
     1  C    0.146987   0.277245
     2  C    0.176163   0.271143
     3  C   -0.207079  -0.118935
     4  C    0.087620   0.334865
     5  C    0.080891   0.301573
     6  C   -0.190396  -0.113791
     7  H    0.198571   0.003167
     8  H    0.199098   0.002802
     9  C    0.192710  -0.068275
    10  N   -0.490627   0.158984
    11  C    0.188808  -0.075757
    12  N   -0.490933   0.174224
    13  C    0.283676  -0.032026
    14  C    0.273952  -0.032871
    15  C   -0.161492   0.109946
    16  C    0.054041   0.075052
    17  C   -0.151411   0.101397
    18  C    0.054344   0.015628
    19  C   -0.177469  -0.050021
    20  H    0.210845  -0.005525
    21  C   -0.190345  -0.028960
    22  C   -0.166831  -0.024699
    23  H    0.198223  -0.004556
    24  C   -0.190290   0.023510
    25  C   -0.168718   0.118995
    26  H    0.187371   0.001545
    27  H    0.182857   0.000894
    28  C   -0.169857   0.070226
    29  H    0.182229   0.000426
    30  H    0.181532  -0.001517
    31  H    0.181036  -0.005967
    32  H    0.178101  -0.003762
    33  C    0.277066  -0.017098
    34  C    0.279023  -0.012166
    35  C   -0.167294   0.055519
    36  C    0.035717   0.000868
    37  C   -0.174982   0.066139
    38  C    0.041894   0.057119
    39  C   -0.169392  -0.005806
    40  H    0.185311  -0.002698
    41  C   -0.182657   0.023431
    42  C   -0.179605  -0.031602
    43  H    0.202112  -0.003444
    44  C   -0.184773  -0.023885
    45  C   -0.176752   0.030797
    46  H    0.173399  -0.000121
    47  H    0.174822  -0.001307
    48  C   -0.175861   0.076643
    49  H    0.180860   0.001022
    50  H    0.175863   0.000953
    51  H    0.171294  -0.001737
    52  H    0.174461  -0.003825
    53  N   -0.664144   0.196987
    54  N   -0.679972   0.119251
 Sum of Mulliken charges =  -0.00000   2.00000

 Dipole moment (field-independent basis, Debye):
    X=            -16.7928    Y=              0.9845    Z=             -0.3218  Tot=             16.8247
 Quadrupole moment (field-independent basis, Debye-Ang):
   XX=           -270.8699   YY=           -177.6872   ZZ=           -201.9223
   XY=             -0.9280   XZ=              3.8751   YZ=             18.5946

 Normal termination of Gaussian 16 at Sat Jul 13 23:22:05 2024.
