 Gaussian 16, Revision C.01,
 Gaussian 16:  ES64L-G16RevC.01  3-Jul-2019

 ----------------------------------------------------------------------
 # 6-31g(d) m062x g09default scf=(xqc,maxcycle=64) force guess=read td
 nosymm
 ----------------------------------------------------------------------

 ----------
 Title Card
 ----------
 Symbolic Z-matrix:
 Charge =  0 Multiplicity = 1

                          Input orientation:
 ---------------------------------------------------------------------
 Center     Atomic      Atomic             Coordinates (Angstroms)
 Number     Number       Type             X           Y           Z
 ---------------------------------------------------------------------
      1          6           0        1.404879    0.488759   -0.485861
      2          6           0        1.422865   -0.495974    0.566688
      3          6           0        2.633852   -0.966626    1.022654
      4          6           0        3.846806   -0.493449    0.501043
      5          6           0        3.816197    0.489446   -0.574975
      6          6           0        2.583255    0.963541   -1.024893
      7          1           0        2.651386   -1.738379    1.786725
      8          1           0        2.558171    1.727004   -1.797106
      9          6           0        4.999749    0.967643   -1.193204
     10          7           0        5.949985    1.371776   -1.728042
     11          6           0        5.069824   -0.980200    1.024907
     12          7           0        6.063683   -1.389572    1.469791
     13          6           0       -0.327607    2.248913   -0.276520
     14          6           0       -0.873754    0.479600   -1.541470
     15          6           0        0.368645    3.165913    0.524856
     16          6           0       -1.685360    2.437580   -0.653199
     17          6           0       -0.831132   -0.722279   -2.244751
     18          6           0       -2.036813    1.282715   -1.472038
     19          6           0       -0.329151    4.287824    0.949877
     20          1           0        1.407226    2.993987    0.785844
     21          6           0       -2.357393    3.563185   -0.213265
     22          6           0       -2.006674   -1.125237   -2.885888
     23          1           0        0.083458   -1.300178   -2.301909
     24          6           0       -3.180994    0.875494   -2.132665
     25          6           0       -1.669730    4.483181    0.590052
     26          1           0        0.170241    5.025402    1.568674
     27          1           0       -3.397838    3.732972   -0.472906
     28          6           0       -3.155294   -0.339242   -2.840392
     29          1           0       -2.016507   -2.061639   -3.432699
     30          1           0       -4.084039    1.477510   -2.110497
     31          1           0       -2.187967    5.368564    0.942937
     32          1           0       -4.045945   -0.662079   -3.368610
     33          6           0       -0.870859   -0.490220    1.609397
     34          6           0       -0.302058   -2.260730    0.349990
     35          6           0       -0.857402    0.694543    2.341730
     36          6           0       -2.041024   -1.268335    1.468598
     37          6           0        0.391953   -3.190427   -0.435835
     38          6           0       -1.679730   -2.411704    0.652443
     39          6           0       -2.053942    1.095901    2.933577
     40          1           0        0.059399    1.261592    2.463174
     41          6           0       -3.218443   -0.859050    2.088734
     42          6           0       -0.323321   -4.275943   -0.917154
     43          1           0        1.449148   -3.058352   -0.642198
     44          6           0       -2.373858   -3.509741    0.151133
     45          6           0       -3.217763    0.328671    2.818664
     46          1           0       -2.073922    2.015230    3.510248
     47          1           0       -4.119211   -1.460902    2.012459
     48          6           0       -1.690664   -4.434599   -0.632501
     49          1           0        0.184566   -5.021860   -1.520414
     50          1           0       -3.431917   -3.641091    0.360035
     51          1           0       -4.125519    0.650883    3.318518
     52          1           0       -2.219435   -5.296257   -1.028530
     53          7           0        0.138564    1.076003   -0.809263
     54          7           0        0.175103   -1.101056    0.924230
 ---------------------------------------------------------------------

 SCF Done:  E(RM062X) =  -1448.68862141     A.U. after   10 cycles

 Excitation energies and oscillator strengths:

 Excited state symmetry could not be determined.
 Excited State   1:      Singlet-?Sym    2.8912 eV  428.83 nm  f=0.0099  <S**2>=0.000
     119 ->120         0.68920
 This state for optimization and/or second-order correction.
 Total Energy, E(TD-HF/TD-DFT) =  -1448.58237160
 Copying the excited state density for this state as the 1-particle RhoCI density.

 Excited state symmetry could not be determined.
 Excited State   2:      Singlet-?Sym    3.1592 eV  392.46 nm  f=0.0217  <S**2>=0.000
     118 ->120         0.68773

 Excited state symmetry could not be determined.
 Excited State   3:      Singlet-?Sym    3.5937 eV  345.00 nm  f=0.0020  <S**2>=0.000
     117 ->120         0.69504

 Alpha  occ. eigenvalues --  -14.82702 -14.82495 -14.79614 -14.79595 -10.65589
 Alpha  occ. eigenvalues --  -10.65515 -10.65328 -10.65244 -10.62055 -10.62000
 Alpha  occ. eigenvalues --  -10.61610 -10.61589 -10.60039 -10.59956 -10.59697
 Alpha  occ. eigenvalues --  -10.59600 -10.56244 -10.56139 -10.56057 -10.56039
 Alpha  occ. eigenvalues --  -10.56006 -10.55979 -10.55933 -10.55927 -10.55842
 Alpha  occ. eigenvalues --  -10.55816 -10.55792 -10.55675 -10.55667 -10.55647
 Alpha  occ. eigenvalues --  -10.55510 -10.55419 -10.55268 -10.55150 -10.54945
 Alpha  occ. eigenvalues --  -10.54866  -1.13877  -1.11590  -1.05204  -1.03466
 Alpha  occ. eigenvalues --   -1.01776  -0.96833  -0.96266  -0.95869  -0.95548
 Alpha  occ. eigenvalues --   -0.92269  -0.91741  -0.88363  -0.87646  -0.85718
 Alpha  occ. eigenvalues --   -0.85316  -0.83711  -0.82614  -0.81956  -0.81818
 Alpha  occ. eigenvalues --   -0.78806  -0.76928  -0.73324  -0.73015  -0.70023
 Alpha  occ. eigenvalues --   -0.69953  -0.69738  -0.69150  -0.66593  -0.66297
 Alpha  occ. eigenvalues --   -0.66238  -0.63683  -0.62280  -0.61373  -0.60156
 Alpha  occ. eigenvalues --   -0.59735  -0.59009  -0.58459  -0.56311  -0.55890
 Alpha  occ. eigenvalues --   -0.53865  -0.53497  -0.53129  -0.53108  -0.52697
 Alpha  occ. eigenvalues --   -0.52506  -0.51403  -0.51288  -0.50691  -0.50601
 Alpha  occ. eigenvalues --   -0.49336  -0.49231  -0.49185  -0.49123  -0.48651
 Alpha  occ. eigenvalues --   -0.48460  -0.46209  -0.46063  -0.45270  -0.44063
 Alpha  occ. eigenvalues --   -0.43748  -0.43450  -0.43249  -0.43037  -0.42647
 Alpha  occ. eigenvalues --   -0.42244  -0.42195  -0.42105  -0.40707  -0.40602
 Alpha  occ. eigenvalues --   -0.40366  -0.40144  -0.39793  -0.39441  -0.36479
 Alpha  occ. eigenvalues --   -0.34566  -0.34405  -0.33989  -0.31852  -0.30515
 Alpha  occ. eigenvalues --   -0.27378  -0.26657  -0.26408  -0.25112
 Alpha virt. eigenvalues --   -0.08055  -0.03916  -0.00510  -0.00290   0.02747
 Alpha virt. eigenvalues --    0.03543   0.04575   0.05355   0.05713   0.05959
 Alpha virt. eigenvalues --    0.07060   0.07445   0.07728   0.10893   0.11029

 Mulliken charges:
               1
     1  C    0.216815
     2  C    0.233770
     3  C   -0.198379
     4  C    0.132646
     5  C    0.125639
     6  C   -0.180515
     7  H    0.234113
     8  H    0.236963
     9  C    0.234239
    10  N   -0.438907
    11  C    0.231769
    12  N   -0.439163
    13  C    0.288648
    14  C    0.277836
    15  C   -0.185300
    16  C    0.042357
    17  C   -0.167209
    18  C    0.048532
    19  C   -0.173203
    20  H    0.159225
    21  C   -0.190718
    22  C   -0.166427
    23  H    0.159177
    24  C   -0.195671
    25  C   -0.186974
    26  H    0.166604
    27  H    0.170334
    28  C   -0.182101
    29  H    0.165743
    30  H    0.166844
    31  H    0.159986
    32  H    0.159417
    33  C    0.282488
    34  C    0.284443
    35  C   -0.166891
    36  C    0.037361
    37  C   -0.185462
    38  C    0.038375
    39  C   -0.167520
    40  H    0.159382
    41  C   -0.185119
    42  C   -0.175119
    43  H    0.160113
    44  C   -0.181740
    45  C   -0.180852
    46  H    0.165762
    47  H    0.166673
    48  C   -0.185724
    49  H    0.166746
    50  H    0.170231
    51  H    0.161319
    52  H    0.161884
    53  N   -0.716167
    54  N   -0.716276
 Sum of Mulliken charges =  -0.00000

 Dipole moment (field-independent basis, Debye):
    X=             -5.5032    Y=             -0.0354    Z=              0.2201  Tot=              5.5078
 Quadrupole moment (field-independent basis, Debye-Ang):
   XX=           -236.5312   YY=           -193.6935   ZZ=           -206.0895
   XY=              0.1245   XZ=              1.6144   YZ=             13.5016

 Normal termination of Gaussian 16 at Sat Jul 13 23:42:53 2024.
