 Gaussian 16, Revision C.01,
 Gaussian 16:  ES64L-G16RevC.01  3-Jul-2019

 ----------------------------------------------------------------------
 # 6-31g(d) m062x g09default scf=(xqc,maxcycle=64) force guess=read nos
 ymm
 ----------------------------------------------------------------------

 ----------
 Title Card
 ----------
 Symbolic Z-matrix:
 Charge =  0 Multiplicity = 3

                          Input orientation:
 ---------------------------------------------------------------------
 Center     Atomic      Atomic             Coordinates (Angstroms)
 Number     Number       Type             X           Y           Z
 ---------------------------------------------------------------------
      1          6           0        1.404879    0.488759   -0.485861
      2          6           0        1.422865   -0.495974    0.566688
      3          6           0        2.633852   -0.966626    1.022654
      4          6           0        3.846806   -0.493449    0.501043
      5          6           0        3.816197    0.489446   -0.574975
      6          6           0        2.583255    0.963541   -1.024893
      7          1           0        2.651386   -1.738379    1.786725
      8          1           0        2.558171    1.727004   -1.797106
      9          6           0        4.999749    0.967643   -1.193204
     10          7           0        5.949985    1.371776   -1.728042
     11          6           0        5.069824   -0.980200    1.024907
     12          7           0        6.063683   -1.389572    1.469791
     13          6           0       -0.327607    2.248913   -0.276520
     14          6           0       -0.873754    0.479600   -1.541470
     15          6           0        0.368645    3.165913    0.524856
     16          6           0       -1.685360    2.437580   -0.653199
     17          6           0       -0.831132   -0.722279   -2.244751
     18          6           0       -2.036813    1.282715   -1.472038
     19          6           0       -0.329151    4.287824    0.949877
     20          1           0        1.407226    2.993987    0.785844
     21          6           0       -2.357393    3.563185   -0.213265
     22          6           0       -2.006674   -1.125237   -2.885888
     23          1           0        0.083458   -1.300178   -2.301909
     24          6           0       -3.180994    0.875494   -2.132665
     25          6           0       -1.669730    4.483181    0.590052
     26          1           0        0.170241    5.025402    1.568674
     27          1           0       -3.397838    3.732972   -0.472906
     28          6           0       -3.155294   -0.339242   -2.840392
     29          1           0       -2.016507   -2.061639   -3.432699
     30          1           0       -4.084039    1.477510   -2.110497
     31          1           0       -2.187967    5.368564    0.942937
     32          1           0       -4.045945   -0.662079   -3.368610
     33          6           0       -0.870859   -0.490220    1.609397
     34          6           0       -0.302058   -2.260730    0.349990
     35          6           0       -0.857402    0.694543    2.341730
     36          6           0       -2.041024   -1.268335    1.468598
     37          6           0        0.391953   -3.190427   -0.435835
     38          6           0       -1.679730   -2.411704    0.652443
     39          6           0       -2.053942    1.095901    2.933577
     40          1           0        0.059399    1.261592    2.463174
     41          6           0       -3.218443   -0.859050    2.088734
     42          6           0       -0.323321   -4.275943   -0.917154
     43          1           0        1.449148   -3.058352   -0.642198
     44          6           0       -2.373858   -3.509741    0.151133
     45          6           0       -3.217763    0.328671    2.818664
     46          1           0       -2.073922    2.015230    3.510248
     47          1           0       -4.119211   -1.460902    2.012459
     48          6           0       -1.690664   -4.434599   -0.632501
     49          1           0        0.184566   -5.021860   -1.520414
     50          1           0       -3.431917   -3.641091    0.360035
     51          1           0       -4.125519    0.650883    3.318518
     52          1           0       -2.219435   -5.296257   -1.028530
     53          7           0        0.138564    1.076003   -0.809263
     54          7           0        0.175103   -1.101056    0.924230
 ---------------------------------------------------------------------

 SCF Done:  E(UM062X) =  -1448.58168623     A.U. after   17 cycles

 Alpha  occ. eigenvalues --  -14.86488 -14.84856 -14.73025 -14.72947 -10.62453
 Alpha  occ. eigenvalues --  -10.62090 -10.61531 -10.61222 -10.60149 -10.60096
 Alpha  occ. eigenvalues --  -10.59389 -10.59184 -10.59027 -10.59021 -10.58990
 Alpha  occ. eigenvalues --  -10.58896 -10.58801 -10.58489 -10.58356 -10.58290
 Alpha  occ. eigenvalues --  -10.58252 -10.58044 -10.58030 -10.58021 -10.57998
 Alpha  occ. eigenvalues --  -10.57823 -10.57693 -10.57632 -10.57622 -10.57571
 Alpha  occ. eigenvalues --  -10.57430 -10.57388 -10.57338 -10.57241 -10.55571
 Alpha  occ. eigenvalues --  -10.55476  -1.15732  -1.13408  -1.00687  -0.98839
 Alpha  occ. eigenvalues --   -0.98773  -0.98203  -0.97777  -0.97620  -0.95723
 Alpha  occ. eigenvalues --   -0.91823  -0.91012  -0.88545  -0.88177  -0.87653
 Alpha  occ. eigenvalues --   -0.87458  -0.84931  -0.84576  -0.83798  -0.83131
 Alpha  occ. eigenvalues --   -0.77716  -0.76158  -0.73859  -0.73239  -0.72662
 Alpha  occ. eigenvalues --   -0.71591  -0.69599  -0.69303  -0.68957  -0.68239
 Alpha  occ. eigenvalues --   -0.65091  -0.64116  -0.62775  -0.61849  -0.61736
 Alpha  occ. eigenvalues --   -0.60693  -0.59427  -0.58694  -0.56192  -0.55974
 Alpha  occ. eigenvalues --   -0.55096  -0.55048  -0.54312  -0.54015  -0.53392
 Alpha  occ. eigenvalues --   -0.53155  -0.52976  -0.52580  -0.52219  -0.51788
 Alpha  occ. eigenvalues --   -0.51471  -0.51219  -0.50748  -0.49153  -0.47373
 Alpha  occ. eigenvalues --   -0.46613  -0.46431  -0.45934  -0.45713  -0.45187
 Alpha  occ. eigenvalues --   -0.44984  -0.44678  -0.43551  -0.42971  -0.42609
 Alpha  occ. eigenvalues --   -0.42482  -0.41843  -0.41647  -0.40577  -0.40465
 Alpha  occ. eigenvalues --   -0.40426  -0.39546  -0.37442  -0.36605  -0.36502
 Alpha  occ. eigenvalues --   -0.36400  -0.34643  -0.33185  -0.32946  -0.30863
 Alpha  occ. eigenvalues --   -0.30073  -0.29232  -0.28617  -0.27734  -0.15258
 Alpha virt. eigenvalues --   -0.03285  -0.02468  -0.00054   0.00287   0.01339
 Alpha virt. eigenvalues --    0.02770   0.03481   0.04755   0.05542   0.09056
 Alpha virt. eigenvalues --    0.10401   0.11419   0.11533   0.12066   0.12210

  Beta  occ. eigenvalues --  -14.86165 -14.84645 -14.72841 -14.72747 -10.62468
  Beta  occ. eigenvalues --  -10.62110 -10.61529 -10.61230 -10.59914 -10.59857
  Beta  occ. eigenvalues --  -10.59337 -10.59112 -10.59014 -10.59007 -10.58951
  Beta  occ. eigenvalues --  -10.58887 -10.58730 -10.58522 -10.58330 -10.58253
  Beta  occ. eigenvalues --  -10.58248 -10.58016 -10.58013 -10.57999 -10.57979
  Beta  occ. eigenvalues --  -10.57823 -10.57716 -10.57699 -10.57590 -10.57576
  Beta  occ. eigenvalues --  -10.57500 -10.57221 -10.57152 -10.57084 -10.55639
  Beta  occ. eigenvalues --  -10.55550  -1.14862  -1.12724  -1.00215  -0.98634
  Beta  occ. eigenvalues --   -0.98320  -0.97861  -0.97661  -0.97047  -0.95228
  Beta  occ. eigenvalues --   -0.91524  -0.90751  -0.88300  -0.87682  -0.87318
  Beta  occ. eigenvalues --   -0.87228  -0.84854  -0.84144  -0.83720  -0.82558
  Beta  occ. eigenvalues --   -0.77213  -0.75895  -0.73458  -0.72910  -0.72338
  Beta  occ. eigenvalues --   -0.71364  -0.69256  -0.69129  -0.68635  -0.68125
  Beta  occ. eigenvalues --   -0.64693  -0.63802  -0.62538  -0.61591  -0.61545
  Beta  occ. eigenvalues --   -0.60480  -0.58318  -0.58264  -0.55994  -0.55768
  Beta  occ. eigenvalues --   -0.54895  -0.54892  -0.53839  -0.53788  -0.52959
  Beta  occ. eigenvalues --   -0.52722  -0.52605  -0.52193  -0.52068  -0.51653
  Beta  occ. eigenvalues --   -0.51329  -0.51116  -0.50640  -0.48692  -0.46301
  Beta  occ. eigenvalues --   -0.46091  -0.45908  -0.45575  -0.45333  -0.44938
  Beta  occ. eigenvalues --   -0.44684  -0.44274  -0.43413  -0.42490  -0.42394
  Beta  occ. eigenvalues --   -0.41832  -0.41297  -0.40867  -0.39951  -0.39792
  Beta  occ. eigenvalues --   -0.38769  -0.37623  -0.36891  -0.36283  -0.36130
  Beta  occ. eigenvalues --   -0.36055  -0.33619  -0.31931  -0.31431  -0.29984
  Beta  occ. eigenvalues --   -0.28859  -0.27031  -0.26218
  Beta virt. eigenvalues --   -0.18264  -0.02789  -0.02097  -0.01313   0.00500
  Beta virt. eigenvalues --    0.00760   0.01626   0.03860   0.04194   0.05297
  Beta virt. eigenvalues --    0.05876   0.10690   0.11237   0.11521   0.12010

 Mulliken charges and spin densities:
               1          2
     1  C    0.148469   0.276878
     2  C    0.176170   0.272682
     3  C   -0.206784  -0.119430
     4  C    0.087304   0.334849
     5  C    0.081144   0.304946
     6  C   -0.190668  -0.114569
     7  H    0.198801   0.003175
     8  H    0.199311   0.002836
     9  C    0.192597  -0.069197
    10  N   -0.490591   0.160884
    11  C    0.189243  -0.075842
    12  N   -0.490680   0.174150
    13  C    0.283449  -0.031521
    14  C    0.274118  -0.032353
    15  C   -0.161896   0.108225
    16  C    0.053742   0.074261
    17  C   -0.151473   0.099740
    18  C    0.053431   0.015500
    19  C   -0.177563  -0.049273
    20  H    0.210451  -0.005435
    21  C   -0.190222  -0.028559
    22  C   -0.166984  -0.024198
    23  H    0.197721  -0.004493
    24  C   -0.189937   0.023207
    25  C   -0.168953   0.117225
    26  H    0.187110   0.001524
    27  H    0.182610   0.000886
    28  C   -0.170085   0.069122
    29  H    0.181967   0.000416
    30  H    0.181285  -0.001498
    31  H    0.180795  -0.005879
    32  H    0.177858  -0.003705
    33  C    0.276943  -0.017389
    34  C    0.278964  -0.012618
    35  C   -0.166761   0.056399
    36  C    0.036083   0.001307
    37  C   -0.175042   0.066608
    38  C    0.041989   0.057284
    39  C   -0.169252  -0.006288
    40  H    0.185542  -0.002729
    41  C   -0.182502   0.023254
    42  C   -0.179590  -0.031796
    43  H    0.202271  -0.003453
    44  C   -0.184651  -0.023842
    45  C   -0.176618   0.031639
    46  H    0.173610  -0.000101
    47  H    0.175027  -0.001303
    48  C   -0.175698   0.076865
    49  H    0.180951   0.001028
    50  H    0.175949   0.000952
    51  H    0.171412  -0.001780
    52  H    0.174546  -0.003838
    53  N   -0.664899   0.194149
    54  N   -0.680015   0.121098
 Sum of Mulliken charges =  -0.00000   2.00000

 Dipole moment (field-independent basis, Debye):
    X=            -16.7492    Y=              0.9302    Z=             -0.2835  Tot=             16.7774
 Quadrupole moment (field-independent basis, Debye-Ang):
   XX=           -270.7654   YY=           -177.7532   ZZ=           -201.9450
   XY=             -0.9010   XZ=              3.8052   YZ=             18.5623

 Normal termination of Gaussian 16 at Sat Jul 13 23:33:26 2024.
