 Gaussian 16, Revision C.01,
 Gaussian 16:  ES64L-G16RevC.01  3-Jul-2019

 ----------------------------------------------------------------------
 # 6-31g(d) m062x g09default scf=(xqc,maxcycle=64) force guess=read td
 nosymm
 ----------------------------------------------------------------------

 ----------
 Title Card
 ----------
 Symbolic Z-matrix:
 Charge =  0 Multiplicity = 1

                          Input orientation:
 ---------------------------------------------------------------------
 Center     Atomic      Atomic             Coordinates (Angstroms)
 Number     Number       Type             X           Y           Z
 ---------------------------------------------------------------------
      1          6           0        1.404905    0.489961   -0.485503
      2          6           0        1.422970   -0.496677    0.565617
      3          6           0        2.633948   -0.967856    1.022596
      4          6           0        3.846803   -0.493782    0.501556
      5          6           0        3.816283    0.489654   -0.575871
      6          6           0        2.583383    0.965064   -1.023952
      7          1           0        2.651968   -1.738560    1.787567
      8          1           0        2.557452    1.727719   -1.797258
      9          6           0        5.000068    0.967139   -1.194207
     10          7           0        5.950227    1.372222   -1.728713
     11          6           0        5.069784   -0.980206    1.025680
     12          7           0        6.064058   -1.389401    1.469804
     13          6           0       -0.327613    2.249254   -0.276236
     14          6           0       -0.874475    0.478389   -1.539980
     15          6           0        0.368258    3.165372    0.525426
     16          6           0       -1.685266    2.436605   -0.651687
     17          6           0       -0.831346   -0.722574   -2.244838
     18          6           0       -2.036944    1.281837   -1.471179
     19          6           0       -0.329530    4.287090    0.950744
     20          1           0        1.407925    2.995050    0.783975
     21          6           0       -2.357457    3.562950   -0.212088
     22          6           0       -2.006736   -1.125266   -2.885865
     23          1           0        0.082888   -1.300914   -2.301549
     24          6           0       -3.180344    0.875583   -2.133444
     25          6           0       -1.669856    4.482907    0.590544
     26          1           0        0.170639    5.024912    1.568731
     27          1           0       -3.397011    3.734081   -0.473720
     28          6           0       -3.155582   -0.339125   -2.840373
     29          1           0       -2.015778   -2.061786   -3.432701
     30          1           0       -4.083075    1.478591   -2.112207
     31          1           0       -2.187513    5.369218    0.942192
     32          1           0       -4.046210   -0.662518   -3.368450
     33          6           0       -0.871564   -0.489319    1.607962
     34          6           0       -0.302176   -2.260483    0.349651
     35          6           0       -0.857584    0.694769    2.341754
     36          6           0       -2.041803   -1.268041    1.468383
     37          6           0        0.392172   -3.190060   -0.436181
     38          6           0       -1.679693   -2.411488    0.651669
     39          6           0       -2.054285    1.095812    2.934257
     40          1           0        0.058829    1.261889    2.462985
     41          6           0       -3.218100   -0.859949    2.089409
     42          6           0       -0.323157   -4.275956   -0.917810
     43          1           0        1.449683   -3.059690   -0.641304
     44          6           0       -2.374174   -3.509175    0.150972
     45          6           0       -3.217844    0.328163    2.819399
     46          1           0       -2.074468    2.015362    3.510125
     47          1           0       -4.119618   -1.461269    2.013258
     48          6           0       -1.690751   -4.434379   -0.632905
     49          1           0        0.184700   -5.021917   -1.519733
     50          1           0       -3.431541   -3.640999    0.360975
     51          1           0       -4.125676    0.651012    3.318177
     52          1           0       -2.219077   -5.295782   -1.028744
     53          7           0        0.138917    1.075468   -0.808981
     54          7           0        0.174078   -1.100189    0.922263
 ---------------------------------------------------------------------

 SCF Done:  E(RM062X) =  -1448.68865702     A.U. after   10 cycles

 Excitation energies and oscillator strengths:

 Excited state symmetry could not be determined.
 Excited State   1:      Singlet-?Sym    2.8912 eV  428.83 nm  f=0.0101  <S**2>=0.000
     119 ->120         0.68932
 This state for optimization and/or second-order correction.
 Total Energy, E(TD-HF/TD-DFT) =  -1448.58240667
 Copying the excited state density for this state as the 1-particle RhoCI density.

 Excited state symmetry could not be determined.
 Excited State   2:      Singlet-?Sym    3.1578 eV  392.63 nm  f=0.0222  <S**2>=0.000
     118 ->120         0.68806

 Excited state symmetry could not be determined.
 Excited State   3:      Singlet-?Sym    3.5947 eV  344.90 nm  f=0.0020  <S**2>=0.000
     117 ->120         0.69537

 Alpha  occ. eigenvalues --  -14.82700 -14.82487 -14.79607 -14.79592 -10.65588
 Alpha  occ. eigenvalues --  -10.65506 -10.65330 -10.65247 -10.62060 -10.61994
 Alpha  occ. eigenvalues --  -10.61604 -10.61588 -10.60036 -10.59953 -10.59702
 Alpha  occ. eigenvalues --  -10.59604 -10.56244 -10.56141 -10.56053 -10.56037
 Alpha  occ. eigenvalues --  -10.56013 -10.55975 -10.55937 -10.55934 -10.55842
 Alpha  occ. eigenvalues --  -10.55820 -10.55792 -10.55674 -10.55664 -10.55649
 Alpha  occ. eigenvalues --  -10.55509 -10.55422 -10.55266 -10.55155 -10.54945
 Alpha  occ. eigenvalues --  -10.54870  -1.13875  -1.11582  -1.05187  -1.03458
 Alpha  occ. eigenvalues --   -1.01762  -0.96829  -0.96269  -0.95870  -0.95554
 Alpha  occ. eigenvalues --   -0.92265  -0.91729  -0.88361  -0.87640  -0.85717
 Alpha  occ. eigenvalues --   -0.85319  -0.83712  -0.82614  -0.81960  -0.81824
 Alpha  occ. eigenvalues --   -0.78802  -0.76921  -0.73325  -0.73010  -0.70020
 Alpha  occ. eigenvalues --   -0.69941  -0.69740  -0.69155  -0.66596  -0.66293
 Alpha  occ. eigenvalues --   -0.66241  -0.63687  -0.62270  -0.61368  -0.60158
 Alpha  occ. eigenvalues --   -0.59736  -0.59011  -0.58453  -0.56308  -0.55895
 Alpha  occ. eigenvalues --   -0.53860  -0.53494  -0.53136  -0.53109  -0.52697
 Alpha  occ. eigenvalues --   -0.52503  -0.51405  -0.51290  -0.50688  -0.50603
 Alpha  occ. eigenvalues --   -0.49330  -0.49226  -0.49185  -0.49134  -0.48655
 Alpha  occ. eigenvalues --   -0.48459  -0.46203  -0.46060  -0.45266  -0.44059
 Alpha  occ. eigenvalues --   -0.43749  -0.43448  -0.43248  -0.43044  -0.42647
 Alpha  occ. eigenvalues --   -0.42247  -0.42192  -0.42095  -0.40712  -0.40609
 Alpha  occ. eigenvalues --   -0.40367  -0.40142  -0.39795  -0.39436  -0.36474
 Alpha  occ. eigenvalues --   -0.34559  -0.34403  -0.33971  -0.31851  -0.30519
 Alpha  occ. eigenvalues --   -0.27385  -0.26661  -0.26405  -0.25116
 Alpha virt. eigenvalues --   -0.08057  -0.03909  -0.00506  -0.00291   0.02747
 Alpha virt. eigenvalues --    0.03541   0.04579   0.05360   0.05707   0.05947
 Alpha virt. eigenvalues --    0.07069   0.07439   0.07722   0.10901   0.11039

 Mulliken charges:
               1
     1  C    0.217594
     2  C    0.233623
     3  C   -0.198061
     4  C    0.132038
     5  C    0.125817
     6  C   -0.180847
     7  H    0.234218
     8  H    0.236936
     9  C    0.234346
    10  N   -0.439013
    11  C    0.231753
    12  N   -0.439242
    13  C    0.288609
    14  C    0.277601
    15  C   -0.185446
    16  C    0.042130
    17  C   -0.166872
    18  C    0.048928
    19  C   -0.173304
    20  H    0.159420
    21  C   -0.190461
    22  C   -0.166595
    23  H    0.159235
    24  C   -0.195874
    25  C   -0.186843
    26  H    0.166613
    27  H    0.170355
    28  C   -0.181983
    29  H    0.165738
    30  H    0.166816
    31  H    0.160052
    32  H    0.159499
    33  C    0.282069
    34  C    0.284975
    35  C   -0.166862
    36  C    0.038315
    37  C   -0.185943
    38  C    0.038035
    39  C   -0.167509
    40  H    0.159390
    41  C   -0.185775
    42  C   -0.174899
    43  H    0.160217
    44  C   -0.181736
    45  C   -0.180826
    46  H    0.165783
    47  H    0.166694
    48  C   -0.185962
    49  H    0.166796
    50  H    0.170262
    51  H    0.161304
    52  H    0.161823
    53  N   -0.716475
    54  N   -0.716456
 Sum of Mulliken charges =  -0.00000

 Dipole moment (field-independent basis, Debye):
    X=             -5.5122    Y=             -0.0285    Z=              0.2179  Tot=              5.5166
 Quadrupole moment (field-independent basis, Debye-Ang):
   XX=           -236.5774   YY=           -193.6401   ZZ=           -206.0952
   XY=              0.1019   XZ=              1.6328   YZ=             13.4823

 Normal termination of Gaussian 16 at Sat Jul 13 23:54:24 2024.
