 Gaussian 16, Revision C.01,
 Gaussian 16:  ES64L-G16RevC.01  3-Jul-2019

 ----------------------------------------------------------------------
 # 6-31g(d) m062x g09default scf=(xqc,maxcycle=64) force guess=read nos
 ymm
 ----------------------------------------------------------------------

 ----------
 Title Card
 ----------
 Symbolic Z-matrix:
 Charge =  0 Multiplicity = 3

                          Input orientation:
 ---------------------------------------------------------------------
 Center     Atomic      Atomic             Coordinates (Angstroms)
 Number     Number       Type             X           Y           Z
 ---------------------------------------------------------------------
      1          6           0        1.404905    0.489961   -0.485503
      2          6           0        1.422970   -0.496677    0.565617
      3          6           0        2.633948   -0.967856    1.022596
      4          6           0        3.846803   -0.493782    0.501556
      5          6           0        3.816283    0.489654   -0.575871
      6          6           0        2.583383    0.965064   -1.023952
      7          1           0        2.651968   -1.738560    1.787567
      8          1           0        2.557452    1.727719   -1.797258
      9          6           0        5.000068    0.967139   -1.194207
     10          7           0        5.950227    1.372222   -1.728713
     11          6           0        5.069784   -0.980206    1.025680
     12          7           0        6.064058   -1.389401    1.469804
     13          6           0       -0.327613    2.249254   -0.276236
     14          6           0       -0.874475    0.478389   -1.539980
     15          6           0        0.368258    3.165372    0.525426
     16          6           0       -1.685266    2.436605   -0.651687
     17          6           0       -0.831346   -0.722574   -2.244838
     18          6           0       -2.036944    1.281837   -1.471179
     19          6           0       -0.329530    4.287090    0.950744
     20          1           0        1.407925    2.995050    0.783975
     21          6           0       -2.357457    3.562950   -0.212088
     22          6           0       -2.006736   -1.125266   -2.885865
     23          1           0        0.082888   -1.300914   -2.301549
     24          6           0       -3.180344    0.875583   -2.133444
     25          6           0       -1.669856    4.482907    0.590544
     26          1           0        0.170639    5.024912    1.568731
     27          1           0       -3.397011    3.734081   -0.473720
     28          6           0       -3.155582   -0.339125   -2.840373
     29          1           0       -2.015778   -2.061786   -3.432701
     30          1           0       -4.083075    1.478591   -2.112207
     31          1           0       -2.187513    5.369218    0.942192
     32          1           0       -4.046210   -0.662518   -3.368450
     33          6           0       -0.871564   -0.489319    1.607962
     34          6           0       -0.302176   -2.260483    0.349651
     35          6           0       -0.857584    0.694769    2.341754
     36          6           0       -2.041803   -1.268041    1.468383
     37          6           0        0.392172   -3.190060   -0.436181
     38          6           0       -1.679693   -2.411488    0.651669
     39          6           0       -2.054285    1.095812    2.934257
     40          1           0        0.058829    1.261889    2.462985
     41          6           0       -3.218100   -0.859949    2.089409
     42          6           0       -0.323157   -4.275956   -0.917810
     43          1           0        1.449683   -3.059690   -0.641304
     44          6           0       -2.374174   -3.509175    0.150972
     45          6           0       -3.217844    0.328163    2.819399
     46          1           0       -2.074468    2.015362    3.510125
     47          1           0       -4.119618   -1.461269    2.013258
     48          6           0       -1.690751   -4.434379   -0.632905
     49          1           0        0.184700   -5.021917   -1.519733
     50          1           0       -3.431541   -3.640999    0.360975
     51          1           0       -4.125676    0.651012    3.318177
     52          1           0       -2.219077   -5.295782   -1.028744
     53          7           0        0.138917    1.075468   -0.808981
     54          7           0        0.174078   -1.100189    0.922263
 ---------------------------------------------------------------------

 SCF Done:  E(UM062X) =  -1448.58184757     A.U. after   19 cycles

 Alpha  occ. eigenvalues --  -14.86416 -14.84913 -14.73055 -14.72984 -10.62400
 Alpha  occ. eigenvalues --  -10.62053 -10.61555 -10.61252 -10.60182 -10.60126
 Alpha  occ. eigenvalues --  -10.59339 -10.59124 -10.58978 -10.58968 -10.58941
 Alpha  occ. eigenvalues --  -10.58852 -10.58737 -10.58445 -10.58315 -10.58310
 Alpha  occ. eigenvalues --  -10.58213 -10.58075 -10.58048 -10.58045 -10.58019
 Alpha  occ. eigenvalues --  -10.57849 -10.57717 -10.57646 -10.57644 -10.57584
 Alpha  occ. eigenvalues --  -10.57473 -10.57430 -10.57386 -10.57263 -10.55599
 Alpha  occ. eigenvalues --  -10.55510  -1.15693  -1.13431  -1.00688  -0.98827
 Alpha  occ. eigenvalues --   -0.98748  -0.98213  -0.97793  -0.97649  -0.95733
 Alpha  occ. eigenvalues --   -0.91789  -0.91029  -0.88504  -0.88167  -0.87672
 Alpha  occ. eigenvalues --   -0.87478  -0.84887  -0.84574  -0.83825  -0.83129
 Alpha  occ. eigenvalues --   -0.77707  -0.76167  -0.73850  -0.73226  -0.72634
 Alpha  occ. eigenvalues --   -0.71623  -0.69591  -0.69277  -0.68964  -0.68256
 Alpha  occ. eigenvalues --   -0.65084  -0.64132  -0.62727  -0.61824  -0.61767
 Alpha  occ. eigenvalues --   -0.60699  -0.59430  -0.58694  -0.56171  -0.55931
 Alpha  occ. eigenvalues --   -0.55098  -0.55072  -0.54293  -0.53992  -0.53362
 Alpha  occ. eigenvalues --   -0.53164  -0.52990  -0.52596  -0.52179  -0.51788
 Alpha  occ. eigenvalues --   -0.51460  -0.51239  -0.50771  -0.49173  -0.47388
 Alpha  occ. eigenvalues --   -0.46602  -0.46407  -0.45898  -0.45685  -0.45207
 Alpha  occ. eigenvalues --   -0.45008  -0.44678  -0.43510  -0.42950  -0.42588
 Alpha  occ. eigenvalues --   -0.42494  -0.41862  -0.41666  -0.40600  -0.40497
 Alpha  occ. eigenvalues --   -0.40459  -0.39563  -0.37393  -0.36632  -0.36518
 Alpha  occ. eigenvalues --   -0.36425  -0.34615  -0.33203  -0.32956  -0.30884
 Alpha  occ. eigenvalues --   -0.30043  -0.29206  -0.28634  -0.27739  -0.15297
 Alpha virt. eigenvalues --   -0.03242  -0.02479  -0.00015   0.00272   0.01319
 Alpha virt. eigenvalues --    0.02810   0.03462   0.04788   0.05519   0.09040
 Alpha virt. eigenvalues --    0.10375   0.11419   0.11513   0.12087   0.12211

  Beta  occ. eigenvalues --  -14.86097 -14.84698 -14.72869 -14.72784 -10.62414
  Beta  occ. eigenvalues --  -10.62072 -10.61553 -10.61261 -10.59946 -10.59887
  Beta  occ. eigenvalues --  -10.59288 -10.59053 -10.58965 -10.58958 -10.58899
  Beta  occ. eigenvalues --  -10.58842 -10.58668 -10.58476 -10.58287 -10.58273
  Beta  occ. eigenvalues --  -10.58211 -10.58035 -10.58033 -10.58030 -10.58002
  Beta  occ. eigenvalues --  -10.57848 -10.57728 -10.57720 -10.57615 -10.57589
  Beta  occ. eigenvalues --  -10.57539 -10.57243 -10.57195 -10.57134 -10.55667
  Beta  occ. eigenvalues --  -10.55583  -1.14830  -1.12739  -1.00214  -0.98600
  Beta  occ. eigenvalues --   -0.98317  -0.97873  -0.97675  -0.97074  -0.95235
  Beta  occ. eigenvalues --   -0.91490  -0.90766  -0.88263  -0.87675  -0.87331
  Beta  occ. eigenvalues --   -0.87248  -0.84811  -0.84147  -0.83746  -0.82553
  Beta  occ. eigenvalues --   -0.77199  -0.75906  -0.73449  -0.72899  -0.72313
  Beta  occ. eigenvalues --   -0.71393  -0.69251  -0.69098  -0.68648  -0.68140
  Beta  occ. eigenvalues --   -0.64687  -0.63818  -0.62491  -0.61578  -0.61565
  Beta  occ. eigenvalues --   -0.60486  -0.58319  -0.58265  -0.55976  -0.55727
  Beta  occ. eigenvalues --   -0.54917  -0.54893  -0.53821  -0.53762  -0.52964
  Beta  occ. eigenvalues --   -0.52724  -0.52596  -0.52200  -0.52030  -0.51665
  Beta  occ. eigenvalues --   -0.51314  -0.51135  -0.50662  -0.48710  -0.46276
  Beta  occ. eigenvalues --   -0.46080  -0.45892  -0.45564  -0.45327  -0.44954
  Beta  occ. eigenvalues --   -0.44701  -0.44272  -0.43373  -0.42475  -0.42406
  Beta  occ. eigenvalues --   -0.41839  -0.41290  -0.40882  -0.39969  -0.39821
  Beta  occ. eigenvalues --   -0.38796  -0.37625  -0.36851  -0.36308  -0.36145
  Beta  occ. eigenvalues --   -0.36075  -0.33610  -0.31930  -0.31452  -0.29950
  Beta  occ. eigenvalues --   -0.28880  -0.27027  -0.26220
  Beta virt. eigenvalues --   -0.18250  -0.02758  -0.02105  -0.01338   0.00532
  Beta virt. eigenvalues --    0.00750   0.01608   0.03879   0.04191   0.05320
  Beta virt. eigenvalues --    0.05857   0.10667   0.11229   0.11546   0.11974

 Mulliken charges and spin densities:
               1          2
     1  C    0.150010   0.277929
     2  C    0.176165   0.273741
     3  C   -0.206495  -0.119980
     4  C    0.087029   0.335594
     5  C    0.081512   0.307184
     6  C   -0.190793  -0.115256
     7  H    0.199045   0.003188
     8  H    0.199565   0.002863
     9  C    0.192849  -0.069830
    10  N   -0.490434   0.161970
    11  C    0.189453  -0.076140
    12  N   -0.490431   0.174575
    13  C    0.283326  -0.030924
    14  C    0.273765  -0.031651
    15  C   -0.162677   0.106072
    16  C    0.053191   0.073053
    17  C   -0.151683   0.097924
    18  C    0.053717   0.015437
    19  C   -0.177601  -0.048273
    20  H    0.210013  -0.005322
    21  C   -0.190048  -0.027999
    22  C   -0.167223  -0.023786
    23  H    0.197184  -0.004414
    24  C   -0.190315   0.022613
    25  C   -0.169253   0.114698
    26  H    0.186779   0.001496
    27  H    0.182348   0.000877
    28  C   -0.170223   0.068019
    29  H    0.181606   0.000413
    30  H    0.181004  -0.001466
    31  H    0.180446  -0.005754
    32  H    0.177609  -0.003646
    33  C    0.276504  -0.017798
    34  C    0.279595  -0.013223
    35  C   -0.166212   0.057378
    36  C    0.037257   0.001811
    37  C   -0.175175   0.067563
    38  C    0.041853   0.057709
    39  C   -0.169181  -0.006874
    40  H    0.185748  -0.002768
    41  C   -0.183079   0.022911
    42  C   -0.179335  -0.032211
    43  H    0.202410  -0.003481
    44  C   -0.184540  -0.023996
    45  C   -0.176381   0.032594
    46  H    0.173857  -0.000077
    47  H    0.175173  -0.001293
    48  C   -0.175735   0.077752
    49  H    0.181132   0.001040
    50  H    0.176175   0.000955
    51  H    0.171590  -0.001827
    52  H    0.174680  -0.003881
    53  N   -0.665836   0.191390
    54  N   -0.679939   0.123122
 Sum of Mulliken charges =  -0.00000   2.00000

 Dipole moment (field-independent basis, Debye):
    X=            -16.6946    Y=              0.8632    Z=             -0.2440  Tot=             16.7187
 Quadrupole moment (field-independent basis, Debye-Ang):
   XX=           -270.6199   YY=           -177.8147   ZZ=           -201.9740
   XY=             -0.8481   XZ=              3.7229   YZ=             18.5174

 Normal termination of Gaussian 16 at Sat Jul 13 23:44:56 2024.
