 Gaussian 16, Revision C.01,
 Gaussian 16:  ES64L-G16RevC.01  3-Jul-2019

 ----------------------------------------------------------------------
 # 6-31g(d) m062x g09default scf=(xqc,maxcycle=64) force guess=read td
 nosymm
 ----------------------------------------------------------------------

 ----------
 Title Card
 ----------
 Symbolic Z-matrix:
 Charge =  0 Multiplicity = 1

                          Input orientation:
 ---------------------------------------------------------------------
 Center     Atomic      Atomic             Coordinates (Angstroms)
 Number     Number       Type             X           Y           Z
 ---------------------------------------------------------------------
      1          6           0        1.405040    0.490938   -0.485116
      2          6           0        1.423242   -0.497602    0.564595
      3          6           0        2.633921   -0.968853    1.022424
      4          6           0        3.846544   -0.493971    0.501978
      5          6           0        3.816570    0.489521   -0.576366
      6          6           0        2.583300    0.966564   -1.023291
      7          1           0        2.652317   -1.738812    1.788833
      8          1           0        2.556806    1.727781   -1.798014
      9          6           0        5.000359    0.966756   -1.194994
     10          7           0        5.950634    1.372824   -1.728548
     11          6           0        5.069651   -0.980278    1.026434
     12          7           0        6.064453   -1.389620    1.469635
     13          6           0       -0.327461    2.249556   -0.276683
     14          6           0       -0.874874    0.477161   -1.538837
     15          6           0        0.368002    3.164958    0.525939
     16          6           0       -1.685181    2.435836   -0.650892
     17          6           0       -0.831627   -0.722541   -2.245200
     18          6           0       -2.036830    1.281364   -1.470168
     19          6           0       -0.330024    4.286533    0.951518
     20          1           0        1.408104    2.995598    0.782982
     21          6           0       -2.357576    3.562635   -0.211094
     22          6           0       -2.006598   -1.125275   -2.886163
     23          1           0        0.082687   -1.301317   -2.301716
     24          6           0       -3.180348    0.875559   -2.133971
     25          6           0       -1.670206    4.482774    0.590995
     26          1           0        0.170750    5.024517    1.568639
     27          1           0       -3.396403    3.734746   -0.474320
     28          6           0       -3.155986   -0.339175   -2.840285
     29          1           0       -2.015153   -2.061831   -3.432875
     30          1           0       -4.082537    1.478861   -2.112783
     31          1           0       -2.187357    5.369694    0.941589
     32          1           0       -4.046564   -0.663144   -3.367821
     33          6           0       -0.872224   -0.488283    1.607081
     34          6           0       -0.302245   -2.260656    0.349616
     35          6           0       -0.857670    0.694560    2.341903
     36          6           0       -2.042040   -1.267947    1.467951
     37          6           0        0.392125   -3.190107   -0.436701
     38          6           0       -1.679769   -2.411384    0.651394
     39          6           0       -2.054327    1.095700    2.934918
     40          1           0        0.058893    1.261942    2.463254
     41          6           0       -3.218184   -0.860321    2.089979
     42          6           0       -0.323349   -4.275197   -0.918007
     43          1           0        1.450090   -3.060382   -0.641100
     44          6           0       -2.374270   -3.508633    0.150916
     45          6           0       -3.217523    0.327999    2.819757
     46          1           0       -2.074638    2.015719    3.510150
     47          1           0       -4.120015   -1.461026    2.013423
     48          6           0       -1.690386   -4.434162   -0.633283
     49          1           0        0.184893   -5.022016   -1.519687
     50          1           0       -3.431205   -3.640858    0.361850
     51          1           0       -4.125827    0.651658    3.317456
     52          1           0       -2.218817   -5.295564   -1.028703
     53          7           0        0.139032    1.075268   -0.809027
     54          7           0        0.173492   -1.099354    0.920628
 ---------------------------------------------------------------------

 SCF Done:  E(RM062X) =  -1448.68875451     A.U. after    9 cycles

 Excitation energies and oscillator strengths:

 Excited state symmetry could not be determined.
 Excited State   1:      Singlet-?Sym    2.8931 eV  428.55 nm  f=0.0103  <S**2>=0.000
     119 ->120         0.68939
 This state for optimization and/or second-order correction.
 Total Energy, E(TD-HF/TD-DFT) =  -1448.58243361
 Copying the excited state density for this state as the 1-particle RhoCI density.

 Excited state symmetry could not be determined.
 Excited State   2:      Singlet-?Sym    3.1592 eV  392.45 nm  f=0.0227  <S**2>=0.000
     118 ->120         0.68797

 Excited state symmetry could not be determined.
 Excited State   3:      Singlet-?Sym    3.5957 eV  344.82 nm  f=0.0020  <S**2>=0.000
     117 ->120         0.69519

 Alpha  occ. eigenvalues --  -14.82696 -14.82485 -14.79604 -14.79587 -10.65585
 Alpha  occ. eigenvalues --  -10.65498 -10.65332 -10.65252 -10.62062 -10.61993
 Alpha  occ. eigenvalues --  -10.61603 -10.61585 -10.60037 -10.59950 -10.59706
 Alpha  occ. eigenvalues --  -10.59604 -10.56240 -10.56143 -10.56052 -10.56031
 Alpha  occ. eigenvalues --  -10.56015 -10.55973 -10.55939 -10.55936 -10.55848
 Alpha  occ. eigenvalues --  -10.55824 -10.55794 -10.55678 -10.55663 -10.55652
 Alpha  occ. eigenvalues --  -10.55511 -10.55424 -10.55264 -10.55156 -10.54946
 Alpha  occ. eigenvalues --  -10.54874  -1.13870  -1.11572  -1.05173  -1.03450
 Alpha  occ. eigenvalues --   -1.01751  -0.96826  -0.96271  -0.95876  -0.95559
 Alpha  occ. eigenvalues --   -0.92260  -0.91722  -0.88365  -0.87640  -0.85717
 Alpha  occ. eigenvalues --   -0.85321  -0.83713  -0.82616  -0.81958  -0.81828
 Alpha  occ. eigenvalues --   -0.78799  -0.76914  -0.73326  -0.73006  -0.70017
 Alpha  occ. eigenvalues --   -0.69934  -0.69739  -0.69158  -0.66598  -0.66291
 Alpha  occ. eigenvalues --   -0.66239  -0.63686  -0.62261  -0.61363  -0.60157
 Alpha  occ. eigenvalues --   -0.59732  -0.59012  -0.58452  -0.56307  -0.55894
 Alpha  occ. eigenvalues --   -0.53858  -0.53490  -0.53140  -0.53108  -0.52697
 Alpha  occ. eigenvalues --   -0.52501  -0.51406  -0.51289  -0.50684  -0.50602
 Alpha  occ. eigenvalues --   -0.49325  -0.49226  -0.49188  -0.49139  -0.48657
 Alpha  occ. eigenvalues --   -0.48457  -0.46197  -0.46055  -0.45260  -0.44054
 Alpha  occ. eigenvalues --   -0.43752  -0.43449  -0.43249  -0.43043  -0.42645
 Alpha  occ. eigenvalues --   -0.42251  -0.42189  -0.42087  -0.40710  -0.40612
 Alpha  occ. eigenvalues --   -0.40366  -0.40144  -0.39804  -0.39436  -0.36469
 Alpha  occ. eigenvalues --   -0.34559  -0.34406  -0.33959  -0.31852  -0.30522
 Alpha  occ. eigenvalues --   -0.27386  -0.26661  -0.26408  -0.25120
 Alpha virt. eigenvalues --   -0.08055  -0.03903  -0.00506  -0.00298   0.02747
 Alpha virt. eigenvalues --    0.03540   0.04584   0.05365   0.05704   0.05940
 Alpha virt. eigenvalues --    0.07080   0.07440   0.07721   0.10901   0.11042

 Mulliken charges:
               1
     1  C    0.218125
     2  C    0.233778
     3  C   -0.197929
     4  C    0.131537
     5  C    0.125651
     6  C   -0.181041
     7  H    0.234378
     8  H    0.236940
     9  C    0.234497
    10  N   -0.439077
    11  C    0.231892
    12  N   -0.439380
    13  C    0.288470
    14  C    0.277822
    15  C   -0.185464
    16  C    0.041997
    17  C   -0.166672
    18  C    0.048391
    19  C   -0.173410
    20  H    0.159545
    21  C   -0.190226
    22  C   -0.166721
    23  H    0.159240
    24  C   -0.195579
    25  C   -0.186711
    26  H    0.166602
    27  H    0.170327
    28  C   -0.181962
    29  H    0.165766
    30  H    0.166792
    31  H    0.160126
    32  H    0.159550
    33  C    0.282144
    34  C    0.284911
    35  C   -0.167028
    36  C    0.038364
    37  C   -0.185812
    38  C    0.038201
    39  C   -0.167458
    40  H    0.159446
    41  C   -0.185786
    42  C   -0.174877
    43  H    0.160345
    44  C   -0.181987
    45  C   -0.180809
    46  H    0.165853
    47  H    0.166741
    48  C   -0.185983
    49  H    0.166718
    50  H    0.170254
    51  H    0.161255
    52  H    0.161826
    53  N   -0.716694
    54  N   -0.716877
 Sum of Mulliken charges =  -0.00000

 Dipole moment (field-independent basis, Debye):
    X=             -5.5212    Y=             -0.0256    Z=              0.2179  Tot=              5.5256
 Quadrupole moment (field-independent basis, Debye-Ang):
   XX=           -236.6204   YY=           -193.6116   ZZ=           -206.0945
   XY=              0.0917   XZ=              1.6392   YZ=             13.4667

 Normal termination of Gaussian 16 at Sun Jul 14 00:05:56 2024.
