 Gaussian 16, Revision C.01,
 Gaussian 16:  ES64L-G16RevC.01  3-Jul-2019

 ----------------------------------------------------------------------
 # 6-31g(d) m062x g09default scf=(xqc,maxcycle=64) force guess=read nos
 ymm
 ----------------------------------------------------------------------

 ----------
 Title Card
 ----------
 Symbolic Z-matrix:
 Charge =  0 Multiplicity = 3

                          Input orientation:
 ---------------------------------------------------------------------
 Center     Atomic      Atomic             Coordinates (Angstroms)
 Number     Number       Type             X           Y           Z
 ---------------------------------------------------------------------
      1          6           0        1.405040    0.490938   -0.485116
      2          6           0        1.423242   -0.497602    0.564595
      3          6           0        2.633921   -0.968853    1.022424
      4          6           0        3.846544   -0.493971    0.501978
      5          6           0        3.816570    0.489521   -0.576366
      6          6           0        2.583300    0.966564   -1.023291
      7          1           0        2.652317   -1.738812    1.788833
      8          1           0        2.556806    1.727781   -1.798014
      9          6           0        5.000359    0.966756   -1.194994
     10          7           0        5.950634    1.372824   -1.728548
     11          6           0        5.069651   -0.980278    1.026434
     12          7           0        6.064453   -1.389620    1.469635
     13          6           0       -0.327461    2.249556   -0.276683
     14          6           0       -0.874874    0.477161   -1.538837
     15          6           0        0.368002    3.164958    0.525939
     16          6           0       -1.685181    2.435836   -0.650892
     17          6           0       -0.831627   -0.722541   -2.245200
     18          6           0       -2.036830    1.281364   -1.470168
     19          6           0       -0.330024    4.286533    0.951518
     20          1           0        1.408104    2.995598    0.782982
     21          6           0       -2.357576    3.562635   -0.211094
     22          6           0       -2.006598   -1.125275   -2.886163
     23          1           0        0.082687   -1.301317   -2.301716
     24          6           0       -3.180348    0.875559   -2.133971
     25          6           0       -1.670206    4.482774    0.590995
     26          1           0        0.170750    5.024517    1.568639
     27          1           0       -3.396403    3.734746   -0.474320
     28          6           0       -3.155986   -0.339175   -2.840285
     29          1           0       -2.015153   -2.061831   -3.432875
     30          1           0       -4.082537    1.478861   -2.112783
     31          1           0       -2.187357    5.369694    0.941589
     32          1           0       -4.046564   -0.663144   -3.367821
     33          6           0       -0.872224   -0.488283    1.607081
     34          6           0       -0.302245   -2.260656    0.349616
     35          6           0       -0.857670    0.694560    2.341903
     36          6           0       -2.042040   -1.267947    1.467951
     37          6           0        0.392125   -3.190107   -0.436701
     38          6           0       -1.679769   -2.411384    0.651394
     39          6           0       -2.054327    1.095700    2.934918
     40          1           0        0.058893    1.261942    2.463254
     41          6           0       -3.218184   -0.860321    2.089979
     42          6           0       -0.323349   -4.275197   -0.918007
     43          1           0        1.450090   -3.060382   -0.641100
     44          6           0       -2.374270   -3.508633    0.150916
     45          6           0       -3.217523    0.327999    2.819757
     46          1           0       -2.074638    2.015719    3.510150
     47          1           0       -4.120015   -1.461026    2.013423
     48          6           0       -1.690386   -4.434162   -0.633283
     49          1           0        0.184893   -5.022016   -1.519687
     50          1           0       -3.431205   -3.640858    0.361850
     51          1           0       -4.125827    0.651658    3.317456
     52          1           0       -2.218817   -5.295564   -1.028703
     53          7           0        0.139032    1.075268   -0.809027
     54          7           0        0.173492   -1.099354    0.920628
 ---------------------------------------------------------------------

 SCF Done:  E(UM062X) =  -1448.58198002     A.U. after   19 cycles

 Alpha  occ. eigenvalues --  -14.86361 -14.84956 -14.73073 -14.73018 -10.62359
 Alpha  occ. eigenvalues --  -10.62020 -10.61578 -10.61273 -10.60210 -10.60153
 Alpha  occ. eigenvalues --  -10.59295 -10.59080 -10.58940 -10.58924 -10.58903
 Alpha  occ. eigenvalues --  -10.58817 -10.58688 -10.58410 -10.58333 -10.58273
 Alpha  occ. eigenvalues --  -10.58181 -10.58096 -10.58066 -10.58063 -10.58038
 Alpha  occ. eigenvalues --  -10.57874 -10.57733 -10.57663 -10.57658 -10.57596
 Alpha  occ. eigenvalues --  -10.57510 -10.57464 -10.57424 -10.57280 -10.55617
 Alpha  occ. eigenvalues --  -10.55541  -1.15666  -1.13439  -1.00688  -0.98819
 Alpha  occ. eigenvalues --   -0.98717  -0.98224  -0.97816  -0.97670  -0.95742
 Alpha  occ. eigenvalues --   -0.91764  -0.91051  -0.88471  -0.88157  -0.87689
 Alpha  occ. eigenvalues --   -0.87493  -0.84848  -0.84573  -0.83848  -0.83131
 Alpha  occ. eigenvalues --   -0.77697  -0.76173  -0.73847  -0.73221  -0.72611
 Alpha  occ. eigenvalues --   -0.71641  -0.69583  -0.69256  -0.68968  -0.68269
 Alpha  occ. eigenvalues --   -0.65077  -0.64143  -0.62694  -0.61808  -0.61780
 Alpha  occ. eigenvalues --   -0.60703  -0.59431  -0.58696  -0.56155  -0.55898
 Alpha  occ. eigenvalues --   -0.55107  -0.55085  -0.54278  -0.53973  -0.53340
 Alpha  occ. eigenvalues --   -0.53167  -0.53000  -0.52604  -0.52143  -0.51793
 Alpha  occ. eigenvalues --   -0.51447  -0.51263  -0.50785  -0.49186  -0.47402
 Alpha  occ. eigenvalues --   -0.46596  -0.46386  -0.45873  -0.45664  -0.45221
 Alpha  occ. eigenvalues --   -0.45017  -0.44681  -0.43473  -0.42936  -0.42583
 Alpha  occ. eigenvalues --   -0.42493  -0.41876  -0.41685  -0.40616  -0.40519
 Alpha  occ. eigenvalues --   -0.40485  -0.39577  -0.37355  -0.36652  -0.36539
 Alpha  occ. eigenvalues --   -0.36446  -0.34593  -0.33220  -0.32964  -0.30903
 Alpha  occ. eigenvalues --   -0.30013  -0.29184  -0.28649  -0.27745  -0.15326
 Alpha virt. eigenvalues --   -0.03214  -0.02491   0.00013   0.00262   0.01304
 Alpha virt. eigenvalues --    0.02846   0.03447   0.04815   0.05510   0.09031
 Alpha virt. eigenvalues --    0.10354   0.11405   0.11515   0.12105   0.12203

  Beta  occ. eigenvalues --  -14.86045 -14.84738 -14.72887 -14.72818 -10.62373
  Beta  occ. eigenvalues --  -10.62039 -10.61577 -10.61282 -10.59975 -10.59913
  Beta  occ. eigenvalues --  -10.59245 -10.59010 -10.58927 -10.58920 -10.58856
  Beta  occ. eigenvalues --  -10.58807 -10.58620 -10.58440 -10.58291 -10.58253
  Beta  occ. eigenvalues --  -10.58177 -10.58054 -10.58051 -10.58050 -10.58020
  Beta  occ. eigenvalues --  -10.57872 -10.57742 -10.57734 -10.57635 -10.57602
  Beta  occ. eigenvalues --  -10.57572 -10.57259 -10.57231 -10.57174 -10.55685
  Beta  occ. eigenvalues --  -10.55615  -1.14810  -1.12741  -1.00213  -0.98566
  Beta  occ. eigenvalues --   -0.98311  -0.97885  -0.97698  -0.97092  -0.95241
  Beta  occ. eigenvalues --   -0.91465  -0.90788  -0.88234  -0.87668  -0.87342
  Beta  occ. eigenvalues --   -0.87264  -0.84771  -0.84152  -0.83766  -0.82551
  Beta  occ. eigenvalues --   -0.77187  -0.75913  -0.73446  -0.72895  -0.72292
  Beta  occ. eigenvalues --   -0.71409  -0.69245  -0.69072  -0.68658  -0.68151
  Beta  occ. eigenvalues --   -0.64681  -0.63828  -0.62459  -0.61592  -0.61548
  Beta  occ. eigenvalues --   -0.60491  -0.58321  -0.58265  -0.55962  -0.55697
  Beta  occ. eigenvalues --   -0.54933  -0.54895  -0.53805  -0.53742  -0.52967
  Beta  occ. eigenvalues --   -0.52725  -0.52591  -0.52203  -0.51996  -0.51675
  Beta  occ. eigenvalues --   -0.51300  -0.51158  -0.50676  -0.48722  -0.46261
  Beta  occ. eigenvalues --   -0.46073  -0.45879  -0.45557  -0.45321  -0.44964
  Beta  occ. eigenvalues --   -0.44709  -0.44273  -0.43337  -0.42479  -0.42403
  Beta  occ. eigenvalues --   -0.41849  -0.41286  -0.40895  -0.39982  -0.39844
  Beta  occ. eigenvalues --   -0.38813  -0.37627  -0.36820  -0.36326  -0.36163
  Beta  occ. eigenvalues --   -0.36095  -0.33604  -0.31931  -0.31470  -0.29916
  Beta  occ. eigenvalues --   -0.28897  -0.27024  -0.26225
  Beta virt. eigenvalues --   -0.18244  -0.02739  -0.02114  -0.01354   0.00556
  Beta virt. eigenvalues --    0.00743   0.01594   0.03897   0.04191   0.05339
  Beta virt. eigenvalues --    0.05851   0.10650   0.11224   0.11566   0.11945

 Mulliken charges and spin densities:
               1          2
     1  C    0.151280   0.278347
     2  C    0.176443   0.274683
     3  C   -0.206326  -0.120318
     4  C    0.086783   0.335925
     5  C    0.081487   0.309671
     6  C   -0.190871  -0.115911
     7  H    0.199319   0.003194
     8  H    0.199829   0.002892
     9  C    0.193045  -0.070446
    10  N   -0.490302   0.163155
    11  C    0.189809  -0.076339
    12  N   -0.490309   0.174840
    13  C    0.283191  -0.030458
    14  C    0.273905  -0.031108
    15  C   -0.163158   0.104513
    16  C    0.052804   0.072167
    17  C   -0.151975   0.096243
    18  C    0.053070   0.015286
    19  C   -0.177672  -0.047539
    20  H    0.209632  -0.005236
    21  C   -0.189884  -0.027603
    22  C   -0.167376  -0.023310
    23  H    0.196712  -0.004348
    24  C   -0.190130   0.022286
    25  C   -0.169437   0.112824
    26  H    0.186508   0.001476
    27  H    0.182113   0.000872
    28  C   -0.170426   0.066937
    29  H    0.181341   0.000405
    30  H    0.180765  -0.001445
    31  H    0.180206  -0.005661
    32  H    0.177380  -0.003589
    33  C    0.276532  -0.018071
    34  C    0.279612  -0.013667
    35  C   -0.166010   0.057964
    36  C    0.037464   0.002077
    37  C   -0.174805   0.068285
    38  C    0.042197   0.058059
    39  C   -0.169061  -0.007159
    40  H    0.185945  -0.002793
    41  C   -0.183009   0.022781
    42  C   -0.179306  -0.032500
    43  H    0.202572  -0.003502
    44  C   -0.184718  -0.024173
    45  C   -0.176233   0.033091
    46  H    0.174094  -0.000065
    47  H    0.175306  -0.001290
    48  C   -0.175572   0.078541
    49  H    0.181177   0.001048
    50  H    0.176323   0.000960
    51  H    0.171679  -0.001853
    52  H    0.174845  -0.003919
    53  N   -0.666664   0.188966
    54  N   -0.680124   0.124815
 Sum of Mulliken charges =  -0.00000   2.00000

 Dipole moment (field-independent basis, Debye):
    X=            -16.6526    Y=              0.8088    Z=             -0.2103  Tot=             16.6736
 Quadrupole moment (field-independent basis, Debye-Ang):
   XX=           -270.5219   YY=           -177.8685   ZZ=           -201.9965
   XY=             -0.8047   XZ=              3.6546   YZ=             18.4827

 Normal termination of Gaussian 16 at Sat Jul 13 23:56:29 2024.
