 Gaussian 16, Revision C.01,
 Gaussian 16:  ES64L-G16RevC.01  3-Jul-2019

 ----------------------------------------------------------------------
 # 6-31g(d) m062x g09default scf=(xqc,maxcycle=64) force guess=read td
 nosymm
 ----------------------------------------------------------------------

 ----------
 Title Card
 ----------
 Symbolic Z-matrix:
 Charge =  0 Multiplicity = 1

                          Input orientation:
 ---------------------------------------------------------------------
 Center     Atomic      Atomic             Coordinates (Angstroms)
 Number     Number       Type             X           Y           Z
 ---------------------------------------------------------------------
      1          6           0        1.405293    0.492135   -0.484737
      2          6           0        1.423387   -0.498660    0.563498
      3          6           0        2.633914   -0.970178    1.022427
      4          6           0        3.846432   -0.494310    0.502473
      5          6           0        3.816893    0.489583   -0.576899
      6          6           0        2.583358    0.967876   -1.022660
      7          1           0        2.652617   -1.738850    1.790059
      8          1           0        2.556089    1.727735   -1.798867
      9          6           0        5.000573    0.966272   -1.195607
     10          7           0        5.951093    1.373501   -1.728125
     11          6           0        5.069509   -0.980357    1.027207
     12          7           0        6.064650   -1.389886    1.469330
     13          6           0       -0.327281    2.249810   -0.277104
     14          6           0       -0.875235    0.476300   -1.537597
     15          6           0        0.367599    3.164720    0.526247
     16          6           0       -1.685187    2.435348   -0.650209
     17          6           0       -0.831760   -0.722833   -2.245564
     18          6           0       -2.037012    1.280484   -1.469223
     19          6           0       -0.330465    4.285800    0.952309
     20          1           0        1.408217    2.996065    0.782174
     21          6           0       -2.357534    3.562237   -0.210154
     22          6           0       -2.006523   -1.125178   -2.886513
     23          1           0        0.082429   -1.301533   -2.302171
     24          6           0       -3.180218    0.875247   -2.134213
     25          6           0       -1.670702    4.482531    0.591524
     26          1           0        0.170794    5.024155    1.568622
     27          1           0       -3.395945    3.735320   -0.474915
     28          6           0       -3.156245   -0.339239   -2.840148
     29          1           0       -2.014523   -2.061862   -3.433215
     30          1           0       -4.082215    1.479091   -2.113184
     31          1           0       -2.187323    5.370250    0.940939
     32          1           0       -4.047122   -0.663917   -3.366989
     33          6           0       -0.872762   -0.487668    1.605893
     34          6           0       -0.302304   -2.260859    0.349419
     35          6           0       -0.857607    0.694762    2.342250
     36          6           0       -2.042460   -1.267510    1.467715
     37          6           0        0.392362   -3.189713   -0.436925
     38          6           0       -1.679789   -2.411328    0.651258
     39          6           0       -2.054097    1.095593    2.935572
     40          1           0        0.058996    1.261793    2.463665
     41          6           0       -3.218084   -0.860661    2.090238
     42          6           0       -0.323387   -4.275021   -0.918636
     43          1           0        1.450350   -3.060971   -0.641086
     44          6           0       -2.374072   -3.508424    0.150717
     45          6           0       -3.217258    0.328079    2.820206
     46          1           0       -2.074722    2.016094    3.510222
     47          1           0       -4.120491   -1.460608    2.013473
     48          6           0       -1.690355   -4.433548   -0.633397
     49          1           0        0.184944   -5.021847   -1.519660
     50          1           0       -3.430994   -3.640689    0.362820
     51          1           0       -4.125933    0.652520    3.316492
     52          1           0       -2.218539   -5.295440   -1.028622
     53          7           0        0.139360    1.074949   -0.809083
     54          7           0        0.172976   -1.098447    0.918947
 ---------------------------------------------------------------------

 SCF Done:  E(RM062X) =  -1448.68879460     A.U. after    9 cycles

 Excitation energies and oscillator strengths:

 Excited state symmetry could not be determined.
 Excited State   1:      Singlet-?Sym    2.8937 eV  428.47 nm  f=0.0105  <S**2>=0.000
     119 ->120         0.68954
 This state for optimization and/or second-order correction.
 Total Energy, E(TD-HF/TD-DFT) =  -1448.58245448
 Copying the excited state density for this state as the 1-particle RhoCI density.

 Excited state symmetry could not be determined.
 Excited State   2:      Singlet-?Sym    3.1589 eV  392.49 nm  f=0.0233  <S**2>=0.000
     118 ->120         0.68816

 Excited state symmetry could not be determined.
 Excited State   3:      Singlet-?Sym    3.5963 eV  344.76 nm  f=0.0020  <S**2>=0.000
     117 ->120         0.69537

 Alpha  occ. eigenvalues --  -14.82692 -14.82486 -14.79596 -14.79585 -10.65585
 Alpha  occ. eigenvalues --  -10.65492 -10.65334 -10.65254 -10.62065 -10.61991
 Alpha  occ. eigenvalues --  -10.61595 -10.61583 -10.60036 -10.59948 -10.59715
 Alpha  occ. eigenvalues --  -10.59609 -10.56240 -10.56142 -10.56051 -10.56032
 Alpha  occ. eigenvalues --  -10.56017 -10.55972 -10.55940 -10.55937 -10.55851
 Alpha  occ. eigenvalues --  -10.55827 -10.55797 -10.55683 -10.55663 -10.55653
 Alpha  occ. eigenvalues --  -10.55512 -10.55425 -10.55262 -10.55159 -10.54949
 Alpha  occ. eigenvalues --  -10.54877  -1.13871  -1.11568  -1.05159  -1.03443
 Alpha  occ. eigenvalues --   -1.01738  -0.96824  -0.96276  -0.95879  -0.95563
 Alpha  occ. eigenvalues --   -0.92256  -0.91713  -0.88365  -0.87636  -0.85717
 Alpha  occ. eigenvalues --   -0.85323  -0.83717  -0.82616  -0.81960  -0.81834
 Alpha  occ. eigenvalues --   -0.78799  -0.76908  -0.73326  -0.73001  -0.70016
 Alpha  occ. eigenvalues --   -0.69926  -0.69738  -0.69164  -0.66601  -0.66284
 Alpha  occ. eigenvalues --   -0.66240  -0.63688  -0.62253  -0.61359  -0.60156
 Alpha  occ. eigenvalues --   -0.59729  -0.59013  -0.58448  -0.56306  -0.55896
 Alpha  occ. eigenvalues --   -0.53856  -0.53489  -0.53144  -0.53106  -0.52700
 Alpha  occ. eigenvalues --   -0.52499  -0.51407  -0.51287  -0.50681  -0.50601
 Alpha  occ. eigenvalues --   -0.49323  -0.49223  -0.49192  -0.49142  -0.48661
 Alpha  occ. eigenvalues --   -0.48456  -0.46192  -0.46051  -0.45257  -0.44051
 Alpha  occ. eigenvalues --   -0.43752  -0.43445  -0.43251  -0.43047  -0.42644
 Alpha  occ. eigenvalues --   -0.42253  -0.42186  -0.42077  -0.40710  -0.40617
 Alpha  occ. eigenvalues --   -0.40367  -0.40146  -0.39807  -0.39434  -0.36464
 Alpha  occ. eigenvalues --   -0.34553  -0.34407  -0.33943  -0.31852  -0.30526
 Alpha  occ. eigenvalues --   -0.27391  -0.26665  -0.26408  -0.25124
 Alpha virt. eigenvalues --   -0.08057  -0.03897  -0.00505  -0.00296   0.02749
 Alpha virt. eigenvalues --    0.03537   0.04588   0.05367   0.05701   0.05929
 Alpha virt. eigenvalues --    0.07090   0.07438   0.07719   0.10910   0.11051

 Mulliken charges:
               1
     1  C    0.218787
     2  C    0.233796
     3  C   -0.197582
     4  C    0.130992
     5  C    0.125786
     6  C   -0.181266
     7  H    0.234490
     8  H    0.236935
     9  C    0.234481
    10  N   -0.439199
    11  C    0.231874
    12  N   -0.439424
    13  C    0.288161
    14  C    0.277562
    15  C   -0.185412
    16  C    0.042066
    17  C   -0.166343
    18  C    0.048373
    19  C   -0.173555
    20  H    0.159631
    21  C   -0.190235
    22  C   -0.166805
    23  H    0.159236
    24  C   -0.195488
    25  C   -0.186588
    26  H    0.166588
    27  H    0.170273
    28  C   -0.181934
    29  H    0.165760
    30  H    0.166790
    31  H    0.160207
    32  H    0.159591
    33  C    0.281701
    34  C    0.284983
    35  C   -0.166814
    36  C    0.039019
    37  C   -0.186165
    38  C    0.038027
    39  C   -0.167394
    40  H    0.159466
    41  C   -0.186095
    42  C   -0.174823
    43  H    0.160486
    44  C   -0.181928
    45  C   -0.180852
    46  H    0.165882
    47  H    0.166817
    48  C   -0.186007
    49  H    0.166764
    50  H    0.170226
    51  H    0.161241
    52  H    0.161772
    53  N   -0.716747
    54  N   -0.717105
 Sum of Mulliken charges =  -0.00000

 Dipole moment (field-independent basis, Debye):
    X=             -5.5293    Y=             -0.0246    Z=              0.2169  Tot=              5.5336
 Quadrupole moment (field-independent basis, Debye-Ang):
   XX=           -236.6662   YY=           -193.5812   ZZ=           -206.0938
   XY=              0.0750   XZ=              1.6417   YZ=             13.4526

 Normal termination of Gaussian 16 at Sun Jul 14 00:17:14 2024.
