 Gaussian 16, Revision C.01,
 Gaussian 16:  ES64L-G16RevC.01  3-Jul-2019

 ----------------------------------------------------------------------
 # 6-31g(d) m062x g09default scf=(xqc,maxcycle=64) force guess=read nos
 ymm
 ----------------------------------------------------------------------

 ----------
 Title Card
 ----------
 Symbolic Z-matrix:
 Charge =  0 Multiplicity = 3

                          Input orientation:
 ---------------------------------------------------------------------
 Center     Atomic      Atomic             Coordinates (Angstroms)
 Number     Number       Type             X           Y           Z
 ---------------------------------------------------------------------
      1          6           0        1.405293    0.492135   -0.484737
      2          6           0        1.423387   -0.498660    0.563498
      3          6           0        2.633914   -0.970178    1.022427
      4          6           0        3.846432   -0.494310    0.502473
      5          6           0        3.816893    0.489583   -0.576899
      6          6           0        2.583358    0.967876   -1.022660
      7          1           0        2.652617   -1.738850    1.790059
      8          1           0        2.556089    1.727735   -1.798867
      9          6           0        5.000573    0.966272   -1.195607
     10          7           0        5.951093    1.373501   -1.728125
     11          6           0        5.069509   -0.980357    1.027207
     12          7           0        6.064650   -1.389886    1.469330
     13          6           0       -0.327281    2.249810   -0.277104
     14          6           0       -0.875235    0.476300   -1.537597
     15          6           0        0.367599    3.164720    0.526247
     16          6           0       -1.685187    2.435348   -0.650209
     17          6           0       -0.831760   -0.722833   -2.245564
     18          6           0       -2.037012    1.280484   -1.469223
     19          6           0       -0.330465    4.285800    0.952309
     20          1           0        1.408217    2.996065    0.782174
     21          6           0       -2.357534    3.562237   -0.210154
     22          6           0       -2.006523   -1.125178   -2.886513
     23          1           0        0.082429   -1.301533   -2.302171
     24          6           0       -3.180218    0.875247   -2.134213
     25          6           0       -1.670702    4.482531    0.591524
     26          1           0        0.170794    5.024155    1.568622
     27          1           0       -3.395945    3.735320   -0.474915
     28          6           0       -3.156245   -0.339239   -2.840148
     29          1           0       -2.014523   -2.061862   -3.433215
     30          1           0       -4.082215    1.479091   -2.113184
     31          1           0       -2.187323    5.370250    0.940939
     32          1           0       -4.047122   -0.663917   -3.366989
     33          6           0       -0.872762   -0.487668    1.605893
     34          6           0       -0.302304   -2.260859    0.349419
     35          6           0       -0.857607    0.694762    2.342250
     36          6           0       -2.042460   -1.267510    1.467715
     37          6           0        0.392362   -3.189713   -0.436925
     38          6           0       -1.679789   -2.411328    0.651258
     39          6           0       -2.054097    1.095593    2.935572
     40          1           0        0.058996    1.261793    2.463665
     41          6           0       -3.218084   -0.860661    2.090238
     42          6           0       -0.323387   -4.275021   -0.918636
     43          1           0        1.450350   -3.060971   -0.641086
     44          6           0       -2.374072   -3.508424    0.150717
     45          6           0       -3.217258    0.328079    2.820206
     46          1           0       -2.074722    2.016094    3.510222
     47          1           0       -4.120491   -1.460608    2.013473
     48          6           0       -1.690355   -4.433548   -0.633397
     49          1           0        0.184944   -5.021847   -1.519660
     50          1           0       -3.430994   -3.640689    0.362820
     51          1           0       -4.125933    0.652520    3.316492
     52          1           0       -2.218539   -5.295440   -1.028622
     53          7           0        0.139360    1.074949   -0.809083
     54          7           0        0.172976   -1.098447    0.918947
 ---------------------------------------------------------------------

 SCF Done:  E(UM062X) =  -1448.58211876     A.U. after   17 cycles

 Alpha  occ. eigenvalues --  -14.86311 -14.84993 -14.73100 -14.73053 -10.62320
 Alpha  occ. eigenvalues --  -10.61993 -10.61590 -10.61298 -10.60246 -10.60186
 Alpha  occ. eigenvalues --  -10.59253 -10.59034 -10.58901 -10.58884 -10.58863
 Alpha  occ. eigenvalues --  -10.58783 -10.58641 -10.58375 -10.58346 -10.58237
 Alpha  occ. eigenvalues --  -10.58148 -10.58112 -10.58082 -10.58079 -10.58046
 Alpha  occ. eigenvalues --  -10.57893 -10.57744 -10.57675 -10.57674 -10.57603
 Alpha  occ. eigenvalues --  -10.57553 -10.57502 -10.57468 -10.57298 -10.55640
 Alpha  occ. eigenvalues --  -10.55572  -1.15644  -1.13449  -1.00691  -0.98821
 Alpha  occ. eigenvalues --   -0.98687  -0.98232  -0.97829  -0.97699  -0.95751
 Alpha  occ. eigenvalues --   -0.91738  -0.91065  -0.88439  -0.88152  -0.87704
 Alpha  occ. eigenvalues --   -0.87505  -0.84814  -0.84571  -0.83865  -0.83130
 Alpha  occ. eigenvalues --   -0.77692  -0.76178  -0.73841  -0.73219  -0.72590
 Alpha  occ. eigenvalues --   -0.71655  -0.69581  -0.69235  -0.68966  -0.68281
 Alpha  occ. eigenvalues --   -0.65075  -0.64155  -0.62659  -0.61807  -0.61778
 Alpha  occ. eigenvalues --   -0.60702  -0.59435  -0.58696  -0.56140  -0.55866
 Alpha  occ. eigenvalues --   -0.55111  -0.55094  -0.54265  -0.53953  -0.53317
 Alpha  occ. eigenvalues --   -0.53168  -0.53010  -0.52610  -0.52108  -0.51804
 Alpha  occ. eigenvalues --   -0.51433  -0.51279  -0.50800  -0.49203  -0.47420
 Alpha  occ. eigenvalues --   -0.46594  -0.46365  -0.45850  -0.45640  -0.45226
 Alpha  occ. eigenvalues --   -0.45032  -0.44677  -0.43439  -0.42920  -0.42587
 Alpha  occ. eigenvalues --   -0.42476  -0.41889  -0.41701  -0.40637  -0.40550
 Alpha  occ. eigenvalues --   -0.40516  -0.39594  -0.37318  -0.36677  -0.36550
 Alpha  occ. eigenvalues --   -0.36469  -0.34571  -0.33239  -0.32969  -0.30924
 Alpha  occ. eigenvalues --   -0.29987  -0.29163  -0.28657  -0.27747  -0.15364
 Alpha virt. eigenvalues --   -0.03177  -0.02497   0.00035   0.00252   0.01295
 Alpha virt. eigenvalues --    0.02877   0.03434   0.04843   0.05497   0.09017
 Alpha virt. eigenvalues --    0.10330   0.11373   0.11523   0.12120   0.12199

  Beta  occ. eigenvalues --  -14.85998 -14.84773 -14.72912 -14.72853 -10.62334
  Beta  occ. eigenvalues --  -10.62011 -10.61589 -10.61307 -10.60010 -10.59946
  Beta  occ. eigenvalues --  -10.59204 -10.58965 -10.58889 -10.58880 -10.58817
  Beta  occ. eigenvalues --  -10.58773 -10.58574 -10.58405 -10.58304 -10.58219
  Beta  occ. eigenvalues --  -10.58142 -10.58066 -10.58066 -10.58061 -10.58038
  Beta  occ. eigenvalues --  -10.57891 -10.57758 -10.57746 -10.57645 -10.57609
  Beta  occ. eigenvalues --  -10.57609 -10.57276 -10.57272 -10.57220 -10.55709
  Beta  occ. eigenvalues --  -10.55646  -1.14795  -1.12745  -1.00214  -0.98536
  Beta  occ. eigenvalues --   -0.98313  -0.97895  -0.97710  -0.97118  -0.95249
  Beta  occ. eigenvalues --   -0.91439  -0.90801  -0.88205  -0.87666  -0.87349
  Beta  occ. eigenvalues --   -0.87281  -0.84736  -0.84156  -0.83782  -0.82548
  Beta  occ. eigenvalues --   -0.77177  -0.75919  -0.73441  -0.72895  -0.72271
  Beta  occ. eigenvalues --   -0.71421  -0.69245  -0.69044  -0.68664  -0.68163
  Beta  occ. eigenvalues --   -0.64680  -0.63841  -0.62424  -0.61606  -0.61530
  Beta  occ. eigenvalues --   -0.60491  -0.58325  -0.58265  -0.55950  -0.55666
  Beta  occ. eigenvalues --   -0.54944  -0.54895  -0.53789  -0.53724  -0.52968
  Beta  occ. eigenvalues --   -0.52729  -0.52582  -0.52205  -0.51963  -0.51693
  Beta  occ. eigenvalues --   -0.51285  -0.51172  -0.50690  -0.48738  -0.46249
  Beta  occ. eigenvalues --   -0.46067  -0.45865  -0.45548  -0.45313  -0.44970
  Beta  occ. eigenvalues --   -0.44720  -0.44269  -0.43302  -0.42486  -0.42384
  Beta  occ. eigenvalues --   -0.41858  -0.41284  -0.40907  -0.39999  -0.39871
  Beta  occ. eigenvalues --   -0.38838  -0.37631  -0.36791  -0.36349  -0.36177
  Beta  occ. eigenvalues --   -0.36111  -0.33596  -0.31932  -0.31492  -0.29888
  Beta  occ. eigenvalues --   -0.28909  -0.27021  -0.26228
  Beta virt. eigenvalues --   -0.18235  -0.02712  -0.02118  -0.01378   0.00574
  Beta virt. eigenvalues --    0.00736   0.01586   0.03911   0.04190   0.05360
  Beta virt. eigenvalues --    0.05840   0.10629   0.11215   0.11583   0.11910

 Mulliken charges and spin densities:
               1          2
     1  C    0.152724   0.278768
     2  C    0.176612   0.275966
     3  C   -0.205940  -0.120863
     4  C    0.086546   0.336571
     5  C    0.081823   0.312242
     6  C   -0.190964  -0.116569
     7  H    0.199610   0.003206
     8  H    0.200093   0.002918
     9  C    0.193100  -0.071205
    10  N   -0.490198   0.164622
    11  C    0.190038  -0.076595
    12  N   -0.490021   0.175158
    13  C    0.282876  -0.030017
    14  C    0.273574  -0.030603
    15  C   -0.163584   0.102898
    16  C    0.052644   0.071254
    17  C   -0.152049   0.094787
    18  C    0.052955   0.015280
    19  C   -0.177773  -0.046802
    20  H    0.209209  -0.005148
    21  C   -0.189970  -0.027165
    22  C   -0.167499  -0.022984
    23  H    0.196242  -0.004287
    24  C   -0.190169   0.021779
    25  C   -0.169615   0.111051
    26  H    0.186238   0.001455
    27  H    0.181867   0.000865
    28  C   -0.170595   0.066065
    29  H    0.181073   0.000404
    30  H    0.180557  -0.001417
    31  H    0.179986  -0.005572
    32  H    0.177164  -0.003543
    33  C    0.276065  -0.018319
    34  C    0.279698  -0.014106
    35  C   -0.165441   0.058664
    36  C    0.038274   0.002584
    37  C   -0.174948   0.068735
    38  C    0.042181   0.058136
    39  C   -0.168965  -0.007686
    40  H    0.186073  -0.002819
    41  C   -0.183276   0.022401
    42  C   -0.179221  -0.032673
    43  H    0.202631  -0.003509
    44  C   -0.184588  -0.024101
    45  C   -0.176108   0.033929
    46  H    0.174263  -0.000041
    47  H    0.175462  -0.001277
    48  C   -0.175523   0.078683
    49  H    0.181274   0.001053
    50  H    0.176405   0.000958
    51  H    0.171792  -0.001894
    52  H    0.174884  -0.003928
    53  N   -0.667321   0.186504
    54  N   -0.680164   0.126184
 Sum of Mulliken charges =  -0.00000   2.00000

 Dipole moment (field-independent basis, Debye):
    X=            -16.6008    Y=              0.7613    Z=             -0.1794  Tot=             16.6192
 Quadrupole moment (field-independent basis, Debye-Ang):
   XX=           -270.3895   YY=           -177.9523   ZZ=           -202.0153
   XY=             -0.7813   XZ=              3.5879   YZ=             18.4439

 Normal termination of Gaussian 16 at Sun Jul 14 00:07:49 2024.
