 Gaussian 16, Revision C.01,
 Gaussian 16:  ES64L-G16RevC.01  3-Jul-2019

 ----------------------------------------------------------------------
 # 6-31g(d) m062x g09default scf=(xqc,maxcycle=64) force guess=read td
 nosymm
 ----------------------------------------------------------------------

 ----------
 Title Card
 ----------
 Symbolic Z-matrix:
 Charge =  0 Multiplicity = 1

                          Input orientation:
 ---------------------------------------------------------------------
 Center     Atomic      Atomic             Coordinates (Angstroms)
 Number     Number       Type             X           Y           Z
 ---------------------------------------------------------------------
      1          6           0        1.405532    0.493081   -0.484353
      2          6           0        1.423564   -0.499517    0.562559
      3          6           0        2.633905   -0.971241    1.022308
      4          6           0        3.846280   -0.494600    0.502841
      5          6           0        3.817111    0.489628   -0.577258
      6          6           0        2.583433    0.968966   -1.022142
      7          1           0        2.652839   -1.738932    1.791071
      8          1           0        2.555508    1.727750   -1.799509
      9          6           0        5.000776    0.965887   -1.196077
     10          7           0        5.951456    1.374018   -1.727774
     11          6           0        5.069373   -0.980399    1.027805
     12          7           0        6.064817   -1.390107    1.469105
     13          6           0       -0.327135    2.250128   -0.277458
     14          6           0       -0.875521    0.475378   -1.536645
     15          6           0        0.367308    3.164514    0.526385
     16          6           0       -1.685147    2.434858   -0.649732
     17          6           0       -0.831936   -0.722940   -2.245731
     18          6           0       -2.037066    1.279833   -1.468314
     19          6           0       -0.330896    4.285303    0.952959
     20          1           0        1.408288    2.996441    0.781525
     21          6           0       -2.357569    3.562003   -0.209414
     22          6           0       -2.006445   -1.125154   -2.886794
     23          1           0        0.082284   -1.301732   -2.302610
     24          6           0       -3.180246    0.874931   -2.134382
     25          6           0       -1.671056    4.482298    0.591990
     26          1           0        0.170817    5.023848    1.568647
     27          1           0       -3.395563    3.735747   -0.475373
     28          6           0       -3.156458   -0.339299   -2.840032
     29          1           0       -2.014036   -2.061859   -3.433521
     30          1           0       -4.081915    1.479271   -2.113546
     31          1           0       -2.187312    5.370711    0.940407
     32          1           0       -4.047577   -0.664531   -3.366297
     33          6           0       -0.873150   -0.486976    1.604972
     34          6           0       -0.302331   -2.261005    0.349309
     35          6           0       -0.857510    0.694805    2.342384
     36          6           0       -2.042654   -1.267238    1.467393
     37          6           0        0.392427   -3.189593   -0.437125
     38          6           0       -1.679809   -2.411297    0.651161
     39          6           0       -2.053988    1.095563    2.936139
     40          1           0        0.059119    1.261697    2.464008
     41          6           0       -3.218144   -0.860810    2.090492
     42          6           0       -0.323386   -4.274741   -0.919030
     43          1           0        1.450601   -3.061391   -0.641088
     44          6           0       -2.374033   -3.508159    0.150691
     45          6           0       -3.216978    0.328118    2.820496
     46          1           0       -2.074774    2.016365    3.510290
     47          1           0       -4.120813   -1.460259    2.013527
     48          6           0       -1.690265   -4.433219   -0.633631
     49          1           0        0.184995   -5.021748   -1.519697
     50          1           0       -3.430770   -3.640552    0.363582
     51          1           0       -4.126038    0.653235    3.315723
     52          1           0       -2.218305   -5.295299   -1.028543
     53          7           0        0.139606    1.074750   -0.809115
     54          7           0        0.172480   -1.097812    0.917610
 ---------------------------------------------------------------------

 SCF Done:  E(RM062X) =  -1448.68884494     A.U. after    9 cycles

 Excitation energies and oscillator strengths:

 Excited state symmetry could not be determined.
 Excited State   1:      Singlet-?Sym    2.8948 eV  428.30 nm  f=0.0107  <S**2>=0.000
     119 ->120         0.68958
 This state for optimization and/or second-order correction.
 Total Energy, E(TD-HF/TD-DFT) =  -1448.58246350
 Copying the excited state density for this state as the 1-particle RhoCI density.

 Excited state symmetry could not be determined.
 Excited State   2:      Singlet-?Sym    3.1596 eV  392.40 nm  f=0.0238  <S**2>=0.000
     118 ->120         0.68820

 Excited state symmetry could not be determined.
 Excited State   3:      Singlet-?Sym    3.5967 eV  344.72 nm  f=0.0021  <S**2>=0.000
     117 ->120         0.69534

 Alpha  occ. eigenvalues --  -14.82689 -14.82484 -14.79591 -14.79582 -10.65584
 Alpha  occ. eigenvalues --  -10.65485 -10.65334 -10.65256 -10.62067 -10.61988
 Alpha  occ. eigenvalues --  -10.61590 -10.61580 -10.60034 -10.59946 -10.59720
 Alpha  occ. eigenvalues --  -10.59611 -10.56239 -10.56143 -10.56049 -10.56031
 Alpha  occ. eigenvalues --  -10.56019 -10.55970 -10.55943 -10.55939 -10.55855
 Alpha  occ. eigenvalues --  -10.55832 -10.55800 -10.55687 -10.55663 -10.55656
 Alpha  occ. eigenvalues --  -10.55513 -10.55427 -10.55261 -10.55161 -10.54950
 Alpha  occ. eigenvalues --  -10.54880  -1.13869  -1.11561  -1.05148  -1.03437
 Alpha  occ. eigenvalues --   -1.01729  -0.96821  -0.96278  -0.95882  -0.95567
 Alpha  occ. eigenvalues --   -0.92254  -0.91706  -0.88366  -0.87634  -0.85718
 Alpha  occ. eigenvalues --   -0.85325  -0.83718  -0.82618  -0.81959  -0.81836
 Alpha  occ. eigenvalues --   -0.78798  -0.76902  -0.73327  -0.72998  -0.70013
 Alpha  occ. eigenvalues --   -0.69920  -0.69736  -0.69168  -0.66603  -0.66282
 Alpha  occ. eigenvalues --   -0.66238  -0.63688  -0.62246  -0.61354  -0.60157
 Alpha  occ. eigenvalues --   -0.59728  -0.59012  -0.58445  -0.56306  -0.55898
 Alpha  occ. eigenvalues --   -0.53854  -0.53488  -0.53146  -0.53104  -0.52701
 Alpha  occ. eigenvalues --   -0.52499  -0.51408  -0.51286  -0.50678  -0.50601
 Alpha  occ. eigenvalues --   -0.49320  -0.49223  -0.49194  -0.49147  -0.48664
 Alpha  occ. eigenvalues --   -0.48456  -0.46187  -0.46047  -0.45254  -0.44049
 Alpha  occ. eigenvalues --   -0.43753  -0.43443  -0.43251  -0.43050  -0.42643
 Alpha  occ. eigenvalues --   -0.42255  -0.42183  -0.42070  -0.40708  -0.40620
 Alpha  occ. eigenvalues --   -0.40366  -0.40148  -0.39814  -0.39434  -0.36460
 Alpha  occ. eigenvalues --   -0.34550  -0.34409  -0.33930  -0.31854  -0.30529
 Alpha  occ. eigenvalues --   -0.27392  -0.26666  -0.26410  -0.25128
 Alpha virt. eigenvalues --   -0.08057  -0.03891  -0.00506  -0.00300   0.02751
 Alpha virt. eigenvalues --    0.03538   0.04592   0.05370   0.05699   0.05922
 Alpha virt. eigenvalues --    0.07099   0.07436   0.07716   0.10914   0.11057

 Mulliken charges:
               1
     1  C    0.219266
     2  C    0.233830
     3  C   -0.197370
     4  C    0.130603
     5  C    0.125788
     6  C   -0.181400
     7  H    0.234597
     8  H    0.236936
     9  C    0.234517
    10  N   -0.439280
    11  C    0.231874
    12  N   -0.439484
    13  C    0.288050
    14  C    0.277637
    15  C   -0.185455
    16  C    0.042015
    17  C   -0.166227
    18  C    0.048085
    19  C   -0.173647
    20  H    0.159712
    21  C   -0.190116
    22  C   -0.166862
    23  H    0.159248
    24  C   -0.195261
    25  C   -0.186477
    26  H    0.166588
    27  H    0.170238
    28  C   -0.181917
    29  H    0.165781
    30  H    0.166785
    31  H    0.160265
    32  H    0.159621
    33  C    0.281630
    34  C    0.285058
    35  C   -0.166824
    36  C    0.039150
    37  C   -0.186289
    38  C    0.037997
    39  C   -0.167322
    40  H    0.159485
    41  C   -0.186131
    42  C   -0.174784
    43  H    0.160573
    44  C   -0.181989
    45  C   -0.180875
    46  H    0.165929
    47  H    0.166870
    48  C   -0.186059
    49  H    0.166772
    50  H    0.170208
    51  H    0.161206
    52  H    0.161747
    53  N   -0.716927
    54  N   -0.717364
 Sum of Mulliken charges =  -0.00000

 Dipole moment (field-independent basis, Debye):
    X=             -5.5368    Y=             -0.0225    Z=              0.2160  Tot=              5.5411
 Quadrupole moment (field-independent basis, Debye-Ang):
   XX=           -236.7049   YY=           -193.5576   ZZ=           -206.0899
   XY=              0.0636   XZ=              1.6469   YZ=             13.4428

 Normal termination of Gaussian 16 at Sun Jul 14 00:28:38 2024.
