 Gaussian 16, Revision C.01,
 Gaussian 16:  ES64L-G16RevC.01  3-Jul-2019

 ----------------------------------------------------------------------
 # 6-31g(d) m062x g09default scf=(xqc,maxcycle=64) force guess=read nos
 ymm
 ----------------------------------------------------------------------

 ----------
 Title Card
 ----------
 Symbolic Z-matrix:
 Charge =  0 Multiplicity = 3

                          Input orientation:
 ---------------------------------------------------------------------
 Center     Atomic      Atomic             Coordinates (Angstroms)
 Number     Number       Type             X           Y           Z
 ---------------------------------------------------------------------
      1          6           0        1.405532    0.493081   -0.484353
      2          6           0        1.423564   -0.499517    0.562559
      3          6           0        2.633905   -0.971241    1.022308
      4          6           0        3.846280   -0.494600    0.502841
      5          6           0        3.817111    0.489628   -0.577258
      6          6           0        2.583433    0.968966   -1.022142
      7          1           0        2.652839   -1.738932    1.791071
      8          1           0        2.555508    1.727750   -1.799509
      9          6           0        5.000776    0.965887   -1.196077
     10          7           0        5.951456    1.374018   -1.727774
     11          6           0        5.069373   -0.980399    1.027805
     12          7           0        6.064817   -1.390107    1.469105
     13          6           0       -0.327135    2.250128   -0.277458
     14          6           0       -0.875521    0.475378   -1.536645
     15          6           0        0.367308    3.164514    0.526385
     16          6           0       -1.685147    2.434858   -0.649732
     17          6           0       -0.831936   -0.722940   -2.245731
     18          6           0       -2.037066    1.279833   -1.468314
     19          6           0       -0.330896    4.285303    0.952959
     20          1           0        1.408288    2.996441    0.781525
     21          6           0       -2.357569    3.562003   -0.209414
     22          6           0       -2.006445   -1.125154   -2.886794
     23          1           0        0.082284   -1.301732   -2.302610
     24          6           0       -3.180246    0.874931   -2.134382
     25          6           0       -1.671056    4.482298    0.591990
     26          1           0        0.170817    5.023848    1.568647
     27          1           0       -3.395563    3.735747   -0.475373
     28          6           0       -3.156458   -0.339299   -2.840032
     29          1           0       -2.014036   -2.061859   -3.433521
     30          1           0       -4.081915    1.479271   -2.113546
     31          1           0       -2.187312    5.370711    0.940407
     32          1           0       -4.047577   -0.664531   -3.366297
     33          6           0       -0.873150   -0.486976    1.604972
     34          6           0       -0.302331   -2.261005    0.349309
     35          6           0       -0.857510    0.694805    2.342384
     36          6           0       -2.042654   -1.267238    1.467393
     37          6           0        0.392427   -3.189593   -0.437125
     38          6           0       -1.679809   -2.411297    0.651161
     39          6           0       -2.053988    1.095563    2.936139
     40          1           0        0.059119    1.261697    2.464008
     41          6           0       -3.218144   -0.860810    2.090492
     42          6           0       -0.323386   -4.274741   -0.919030
     43          1           0        1.450601   -3.061391   -0.641088
     44          6           0       -2.374033   -3.508159    0.150691
     45          6           0       -3.216978    0.328118    2.820496
     46          1           0       -2.074774    2.016365    3.510290
     47          1           0       -4.120813   -1.460259    2.013527
     48          6           0       -1.690265   -4.433219   -0.633631
     49          1           0        0.184995   -5.021748   -1.519697
     50          1           0       -3.430770   -3.640552    0.363582
     51          1           0       -4.126038    0.653235    3.315723
     52          1           0       -2.218305   -5.295299   -1.028543
     53          7           0        0.139606    1.074750   -0.809115
     54          7           0        0.172480   -1.097812    0.917610
 ---------------------------------------------------------------------

 SCF Done:  E(UM062X) =  -1448.58222367     A.U. after   18 cycles

 Alpha  occ. eigenvalues --  -14.86266 -14.85026 -14.73121 -14.73081 -10.62287
 Alpha  occ. eigenvalues --  -10.61968 -10.61603 -10.61315 -10.60274 -10.60211
 Alpha  occ. eigenvalues --  -10.59219 -10.58996 -10.58870 -10.58849 -10.58831
 Alpha  occ. eigenvalues --  -10.58755 -10.58600 -10.58359 -10.58346 -10.58206
 Alpha  occ. eigenvalues --  -10.58127 -10.58122 -10.58097 -10.58093 -10.58057
 Alpha  occ. eigenvalues --  -10.57911 -10.57756 -10.57687 -10.57686 -10.57612
 Alpha  occ. eigenvalues --  -10.57588 -10.57532 -10.57502 -10.57311 -10.55658
 Alpha  occ. eigenvalues --  -10.55597  -1.15623  -1.13456  -1.00694  -0.98823
 Alpha  occ. eigenvalues --   -0.98661  -0.98237  -0.97841  -0.97720  -0.95759
 Alpha  occ. eigenvalues --   -0.91717  -0.91079  -0.88413  -0.88146  -0.87718
 Alpha  occ. eigenvalues --   -0.87516  -0.84784  -0.84570  -0.83879  -0.83131
 Alpha  occ. eigenvalues --   -0.77686  -0.76183  -0.73838  -0.73218  -0.72567
 Alpha  occ. eigenvalues --   -0.71668  -0.69578  -0.69220  -0.68963  -0.68291
 Alpha  occ. eigenvalues --   -0.65071  -0.64164  -0.62630  -0.61819  -0.61765
 Alpha  occ. eigenvalues --   -0.60703  -0.59437  -0.58698  -0.56128  -0.55836
 Alpha  occ. eigenvalues --   -0.55119  -0.55100  -0.54254  -0.53937  -0.53299
 Alpha  occ. eigenvalues --   -0.53167  -0.53019  -0.52616  -0.52080  -0.51814
 Alpha  occ. eigenvalues --   -0.51418  -0.51294  -0.50812  -0.49216  -0.47434
 Alpha  occ. eigenvalues --   -0.46592  -0.46347  -0.45829  -0.45620  -0.45236
 Alpha  occ. eigenvalues --   -0.45042  -0.44675  -0.43409  -0.42907  -0.42595
 Alpha  occ. eigenvalues --   -0.42461  -0.41900  -0.41716  -0.40653  -0.40574
 Alpha  occ. eigenvalues --   -0.40540  -0.39608  -0.37286  -0.36696  -0.36562
 Alpha  occ. eigenvalues --   -0.36487  -0.34554  -0.33256  -0.32973  -0.30941
 Alpha  occ. eigenvalues --   -0.29964  -0.29146  -0.28666  -0.27749  -0.15392
 Alpha virt. eigenvalues --   -0.03152  -0.02505   0.00053   0.00248   0.01287
 Alpha virt. eigenvalues --    0.02906   0.03424   0.04866   0.05487   0.09008
 Alpha virt. eigenvalues --    0.10311   0.11345   0.11534   0.12131   0.12197

  Beta  occ. eigenvalues --  -14.85956 -14.84804 -14.72931 -14.72881 -10.62300
  Beta  occ. eigenvalues --  -10.61986 -10.61602 -10.61325 -10.60037 -10.59971
  Beta  occ. eigenvalues --  -10.59170 -10.58928 -10.58858 -10.58848 -10.58783
  Beta  occ. eigenvalues --  -10.58745 -10.58535 -10.58375 -10.58317 -10.58191
  Beta  occ. eigenvalues --  -10.58112 -10.58080 -10.58079 -10.58072 -10.58053
  Beta  occ. eigenvalues --  -10.57909 -10.57770 -10.57756 -10.57657 -10.57637
  Beta  occ. eigenvalues --  -10.57618 -10.57306 -10.57290 -10.57255 -10.55728
  Beta  occ. eigenvalues --  -10.55672  -1.14778  -1.12748  -1.00215  -0.98510
  Beta  occ. eigenvalues --   -0.98313  -0.97902  -0.97722  -0.97137  -0.95255
  Beta  occ. eigenvalues --   -0.91417  -0.90814  -0.88182  -0.87662  -0.87356
  Beta  occ. eigenvalues --   -0.87294  -0.84704  -0.84160  -0.83795  -0.82546
  Beta  occ. eigenvalues --   -0.77168  -0.75924  -0.73440  -0.72894  -0.72251
  Beta  occ. eigenvalues --   -0.71433  -0.69244  -0.69022  -0.68669  -0.68171
  Beta  occ. eigenvalues --   -0.64677  -0.63849  -0.62397  -0.61620  -0.61515
  Beta  occ. eigenvalues --   -0.60492  -0.58327  -0.58265  -0.55940  -0.55638
  Beta  occ. eigenvalues --   -0.54954  -0.54896  -0.53776  -0.53708  -0.52968
  Beta  occ. eigenvalues --   -0.52733  -0.52573  -0.52208  -0.51937  -0.51707
  Beta  occ. eigenvalues --   -0.51271  -0.51185  -0.50702  -0.48749  -0.46238
  Beta  occ. eigenvalues --   -0.46062  -0.45855  -0.45539  -0.45307  -0.44979
  Beta  occ. eigenvalues --   -0.44726  -0.44266  -0.43271  -0.42496  -0.42369
  Beta  occ. eigenvalues --   -0.41866  -0.41282  -0.40917  -0.40012  -0.39892
  Beta  occ. eigenvalues --   -0.38857  -0.37633  -0.36765  -0.36367  -0.36190
  Beta  occ. eigenvalues --   -0.36124  -0.33591  -0.31933  -0.31508  -0.29863
  Beta  occ. eigenvalues --   -0.28918  -0.27018  -0.26232
  Beta virt. eigenvalues --   -0.18228  -0.02695  -0.02124  -0.01394   0.00589
  Beta virt. eigenvalues --    0.00735   0.01578   0.03924   0.04191   0.05376
  Beta virt. eigenvalues --    0.05832   0.10613   0.11210   0.11597   0.11882

 Mulliken charges and spin densities:
               1          2
     1  C    0.153838   0.279208
     2  C    0.176782   0.276899
     3  C   -0.205705  -0.121247
     4  C    0.086399   0.337054
     5  C    0.081985   0.314277
     6  C   -0.190989  -0.117099
     7  H    0.199845   0.003214
     8  H    0.200311   0.002939
     9  C    0.193201  -0.071776
    10  N   -0.490093   0.165715
    11  C    0.190230  -0.076799
    12  N   -0.489825   0.175435
    13  C    0.282749  -0.029628
    14  C    0.273582  -0.030158
    15  C   -0.164016   0.101586
    16  C    0.052395   0.070490
    17  C   -0.152312   0.093472
    18  C    0.052573   0.015192
    19  C   -0.177831  -0.046190
    20  H    0.208867  -0.005077
    21  C   -0.189911  -0.026819
    22  C   -0.167580  -0.022633
    23  H    0.195859  -0.004232
    24  C   -0.190043   0.021443
    25  C   -0.169768   0.109495
    26  H    0.186021   0.001439
    27  H    0.181664   0.000861
    28  C   -0.170761   0.065201
    29  H    0.180859   0.000399
    30  H    0.180375  -0.001397
    31  H    0.179786  -0.005495
    32  H    0.176968  -0.003498
    33  C    0.275974  -0.018536
    34  C    0.279811  -0.014461
    35  C   -0.165155   0.059189
    36  C    0.038532   0.002893
    37  C   -0.174887   0.069200
    38  C    0.042295   0.058327
    39  C   -0.168849  -0.008000
    40  H    0.186193  -0.002839
    41  C   -0.183265   0.022202
    42  C   -0.179160  -0.032867
    43  H    0.202695  -0.003520
    44  C   -0.184586  -0.024153
    45  C   -0.176011   0.034449
    46  H    0.174437  -0.000027
    47  H    0.175585  -0.001271
    48  C   -0.175473   0.079077
    49  H    0.181348   0.001059
    50  H    0.176494   0.000960
    51  H    0.171866  -0.001921
    52  H    0.174963  -0.003947
    53  N   -0.667992   0.184527
    54  N   -0.680269   0.127388
 Sum of Mulliken charges =  -0.00000   2.00000

 Dipole moment (field-independent basis, Debye):
    X=            -16.5598    Y=              0.7194    Z=             -0.1533  Tot=             16.5762
 Quadrupole moment (field-independent basis, Debye-Ang):
   XX=           -270.2890   YY=           -178.0130   ZZ=           -202.0299
   XY=             -0.7525   XZ=              3.5316   YZ=             18.4152

 Normal termination of Gaussian 16 at Sun Jul 14 00:19:13 2024.
