 Gaussian 16, Revision C.01,
 Gaussian 16:  ES64L-G16RevC.01  3-Jul-2019

 ----------------------------------------------------------------------
 # 6-31g(d) m062x g09default scf=(xqc,maxcycle=64) force guess=read td
 nosymm
 ----------------------------------------------------------------------

 ----------
 Title Card
 ----------
 Symbolic Z-matrix:
 Charge =  0 Multiplicity = 1

                          Input orientation:
 ---------------------------------------------------------------------
 Center     Atomic      Atomic             Coordinates (Angstroms)
 Number     Number       Type             X           Y           Z
 ---------------------------------------------------------------------
      1          6           0        1.405537    0.493393   -0.484335
      2          6           0        1.423578   -0.499750    0.562255
      3          6           0        2.633889   -0.971591    1.022430
      4          6           0        3.846260   -0.494712    0.503150
      5          6           0        3.817135    0.489608   -0.577504
      6          6           0        2.583500    0.969116   -1.022064
      7          1           0        2.652870   -1.738800    1.791574
      8          1           0        2.555308    1.727334   -1.800145
      9          6           0        5.000904    0.965761   -1.196081
     10          7           0        5.951743    1.374410   -1.727194
     11          6           0        5.069319   -0.980519    1.028047
     12          7           0        6.064880   -1.390412    1.468890
     13          6           0       -0.327089    2.250325   -0.277604
     14          6           0       -0.875646    0.475158   -1.536564
     15          6           0        0.367061    3.164301    0.526534
     16          6           0       -1.685032    2.434652   -0.649632
     17          6           0       -0.831886   -0.722848   -2.246091
     18          6           0       -2.037155    1.279598   -1.468253
     19          6           0       -0.331186    4.285116    0.953138
     20          1           0        1.408157    2.996402    0.781653
     21          6           0       -2.357716    3.561923   -0.209186
     22          6           0       -2.006398   -1.125083   -2.887039
     23          1           0        0.082295   -1.301626   -2.303002
     24          6           0       -3.180198    0.874703   -2.134265
     25          6           0       -1.671215    4.482171    0.592068
     26          1           0        0.170710    5.023750    1.568584
     27          1           0       -3.395492    3.735744   -0.475488
     28          6           0       -3.156621   -0.339396   -2.839884
     29          1           0       -2.013794   -2.061803   -3.433754
     30          1           0       -4.082118    1.478954   -2.113039
     31          1           0       -2.187457    5.370793    0.940244
     32          1           0       -4.047876   -0.664995   -3.365748
     33          6           0       -0.873142   -0.486802    1.604725
     34          6           0       -0.302335   -2.261005    0.349340
     35          6           0       -0.857260    0.694753    2.342667
     36          6           0       -2.042837   -1.267129    1.467470
     37          6           0        0.392467   -3.189354   -0.437345
     38          6           0       -1.679663   -2.411304    0.651167
     39          6           0       -2.053740    1.095688    2.936467
     40          1           0        0.059375    1.261408    2.464401
     41          6           0       -3.217993   -0.860673    2.090490
     42          6           0       -0.323309   -4.274668   -0.919364
     43          1           0        1.450591   -3.061369   -0.641421
     44          6           0       -2.374107   -3.508006    0.150847
     45          6           0       -3.216894    0.328254    2.820472
     46          1           0       -2.074578    2.016494    3.510308
     47          1           0       -4.121100   -1.459739    2.013186
     48          6           0       -1.690274   -4.433231   -0.633676
     49          1           0        0.184910   -5.021483   -1.519858
     50          1           0       -3.430605   -3.640482    0.363899
     51          1           0       -4.126015    0.653882    3.315102
     52          1           0       -2.218125   -5.295221   -1.028324
     53          7           0        0.139807    1.074648   -0.809245
     54          7           0        0.172250   -1.097627    0.917188
 ---------------------------------------------------------------------

 SCF Done:  E(RM062X) =  -1448.68884837     A.U. after    8 cycles

 Excitation energies and oscillator strengths:

 Excited state symmetry could not be determined.
 Excited State   1:      Singlet-?Sym    2.8948 eV  428.31 nm  f=0.0108  <S**2>=0.000
     119 ->120         0.68963
 This state for optimization and/or second-order correction.
 Total Energy, E(TD-HF/TD-DFT) =  -1448.58246822
 Copying the excited state density for this state as the 1-particle RhoCI density.

 Excited state symmetry could not be determined.
 Excited State   2:      Singlet-?Sym    3.1588 eV  392.51 nm  f=0.0240  <S**2>=0.000
     118 ->120         0.68835

 Excited state symmetry could not be determined.
 Excited State   3:      Singlet-?Sym    3.5966 eV  344.73 nm  f=0.0020  <S**2>=0.000
     117 ->120         0.69553

 Alpha  occ. eigenvalues --  -14.82689 -14.82482 -14.79588 -14.79581 -10.65585
 Alpha  occ. eigenvalues --  -10.65483 -10.65335 -10.65256 -10.62068 -10.61986
 Alpha  occ. eigenvalues --  -10.61588 -10.61579 -10.60033 -10.59945 -10.59721
 Alpha  occ. eigenvalues --  -10.59613 -10.56239 -10.56144 -10.56049 -10.56030
 Alpha  occ. eigenvalues --  -10.56022 -10.55970 -10.55945 -10.55941 -10.55855
 Alpha  occ. eigenvalues --  -10.55833 -10.55800 -10.55686 -10.55662 -10.55657
 Alpha  occ. eigenvalues --  -10.55514 -10.55428 -10.55261 -10.55163 -10.54950
 Alpha  occ. eigenvalues --  -10.54882  -1.13868  -1.11560  -1.05143  -1.03434
 Alpha  occ. eigenvalues --   -1.01724  -0.96819  -0.96279  -0.95881  -0.95568
 Alpha  occ. eigenvalues --   -0.92253  -0.91701  -0.88366  -0.87632  -0.85718
 Alpha  occ. eigenvalues --   -0.85326  -0.83719  -0.82618  -0.81960  -0.81838
 Alpha  occ. eigenvalues --   -0.78797  -0.76900  -0.73328  -0.72996  -0.70012
 Alpha  occ. eigenvalues --   -0.69916  -0.69737  -0.69170  -0.66604  -0.66283
 Alpha  occ. eigenvalues --   -0.66236  -0.63689  -0.62243  -0.61353  -0.60159
 Alpha  occ. eigenvalues --   -0.59729  -0.59013  -0.58443  -0.56304  -0.55900
 Alpha  occ. eigenvalues --   -0.53852  -0.53486  -0.53147  -0.53105  -0.52701
 Alpha  occ. eigenvalues --   -0.52497  -0.51408  -0.51286  -0.50677  -0.50601
 Alpha  occ. eigenvalues --   -0.49319  -0.49221  -0.49194  -0.49150  -0.48665
 Alpha  occ. eigenvalues --   -0.48455  -0.46185  -0.46046  -0.45253  -0.44047
 Alpha  occ. eigenvalues --   -0.43753  -0.43443  -0.43250  -0.43054  -0.42644
 Alpha  occ. eigenvalues --   -0.42255  -0.42182  -0.42066  -0.40710  -0.40622
 Alpha  occ. eigenvalues --   -0.40366  -0.40147  -0.39815  -0.39433  -0.36459
 Alpha  occ. eigenvalues --   -0.34547  -0.34408  -0.33924  -0.31854  -0.30531
 Alpha  occ. eigenvalues --   -0.27393  -0.26666  -0.26409  -0.25130
 Alpha virt. eigenvalues --   -0.08058  -0.03889  -0.00506  -0.00301   0.02752
 Alpha virt. eigenvalues --    0.03537   0.04594   0.05371   0.05697   0.05917
 Alpha virt. eigenvalues --    0.07101   0.07433   0.07715   0.10917   0.11061

 Mulliken charges:
               1
     1  C    0.219487
     2  C    0.233702
     3  C   -0.197233
     4  C    0.130446
     5  C    0.125889
     6  C   -0.181488
     7  H    0.234626
     8  H    0.236925
     9  C    0.234508
    10  N   -0.439318
    11  C    0.231851
    12  N   -0.439505
    13  C    0.288146
    14  C    0.277553
    15  C   -0.185527
    16  C    0.041809
    17  C   -0.166164
    18  C    0.048286
    19  C   -0.173654
    20  H    0.159760
    21  C   -0.189963
    22  C   -0.166899
    23  H    0.159252
    24  C   -0.195350
    25  C   -0.186440
    26  H    0.166596
    27  H    0.170247
    28  C   -0.181890
    29  H    0.165784
    30  H    0.166779
    31  H    0.160280
    32  H    0.159645
    33  C    0.281499
    34  C    0.285263
    35  C   -0.166786
    36  C    0.039427
    37  C   -0.186428
    38  C    0.037877
    39  C   -0.167312
    40  H    0.159453
    41  C   -0.186302
    42  C   -0.174720
    43  H    0.160603
    44  C   -0.182012
    45  C   -0.180903
    46  H    0.165948
    47  H    0.166867
    48  C   -0.186129
    49  H    0.166791
    50  H    0.170221
    51  H    0.161195
    52  H    0.161736
    53  N   -0.717035
    54  N   -0.717393
 Sum of Mulliken charges =  -0.00000

 Dipole moment (field-independent basis, Debye):
    X=             -5.5405    Y=             -0.0209    Z=              0.2147  Tot=              5.5447
 Quadrupole moment (field-independent basis, Debye-Ang):
   XX=           -236.7193   YY=           -193.5491   ZZ=           -206.0876
   XY=              0.0562   XZ=              1.6494   YZ=             13.4435

 Normal termination of Gaussian 16 at Sun Jul 14 00:39:32 2024.
