 Gaussian 16, Revision C.01,
 Gaussian 16:  ES64L-G16RevC.01  3-Jul-2019

 ----------------------------------------------------------------------
 # 6-31g(d) m062x g09default scf=(xqc,maxcycle=64) force guess=read nos
 ymm
 ----------------------------------------------------------------------

 ----------
 Title Card
 ----------
 Symbolic Z-matrix:
 Charge =  0 Multiplicity = 3

                          Input orientation:
 ---------------------------------------------------------------------
 Center     Atomic      Atomic             Coordinates (Angstroms)
 Number     Number       Type             X           Y           Z
 ---------------------------------------------------------------------
      1          6           0        1.405537    0.493393   -0.484335
      2          6           0        1.423578   -0.499750    0.562255
      3          6           0        2.633889   -0.971591    1.022430
      4          6           0        3.846260   -0.494712    0.503150
      5          6           0        3.817135    0.489608   -0.577504
      6          6           0        2.583500    0.969116   -1.022064
      7          1           0        2.652870   -1.738800    1.791574
      8          1           0        2.555308    1.727334   -1.800145
      9          6           0        5.000904    0.965761   -1.196081
     10          7           0        5.951743    1.374410   -1.727194
     11          6           0        5.069319   -0.980519    1.028047
     12          7           0        6.064880   -1.390412    1.468890
     13          6           0       -0.327089    2.250325   -0.277604
     14          6           0       -0.875646    0.475158   -1.536564
     15          6           0        0.367061    3.164301    0.526534
     16          6           0       -1.685032    2.434652   -0.649632
     17          6           0       -0.831886   -0.722848   -2.246091
     18          6           0       -2.037155    1.279598   -1.468253
     19          6           0       -0.331186    4.285116    0.953138
     20          1           0        1.408157    2.996402    0.781653
     21          6           0       -2.357716    3.561923   -0.209186
     22          6           0       -2.006398   -1.125083   -2.887039
     23          1           0        0.082295   -1.301626   -2.303002
     24          6           0       -3.180198    0.874703   -2.134265
     25          6           0       -1.671215    4.482171    0.592068
     26          1           0        0.170710    5.023750    1.568584
     27          1           0       -3.395492    3.735744   -0.475488
     28          6           0       -3.156621   -0.339396   -2.839884
     29          1           0       -2.013794   -2.061803   -3.433754
     30          1           0       -4.082118    1.478954   -2.113039
     31          1           0       -2.187457    5.370793    0.940244
     32          1           0       -4.047876   -0.664995   -3.365748
     33          6           0       -0.873142   -0.486802    1.604725
     34          6           0       -0.302335   -2.261005    0.349340
     35          6           0       -0.857260    0.694753    2.342667
     36          6           0       -2.042837   -1.267129    1.467470
     37          6           0        0.392467   -3.189354   -0.437345
     38          6           0       -1.679663   -2.411304    0.651167
     39          6           0       -2.053740    1.095688    2.936467
     40          1           0        0.059375    1.261408    2.464401
     41          6           0       -3.217993   -0.860673    2.090490
     42          6           0       -0.323309   -4.274668   -0.919364
     43          1           0        1.450591   -3.061369   -0.641421
     44          6           0       -2.374107   -3.508006    0.150847
     45          6           0       -3.216894    0.328254    2.820472
     46          1           0       -2.074578    2.016494    3.510308
     47          1           0       -4.121100   -1.459739    2.013186
     48          6           0       -1.690274   -4.433231   -0.633676
     49          1           0        0.184910   -5.021483   -1.519858
     50          1           0       -3.430605   -3.640482    0.363899
     51          1           0       -4.126015    0.653882    3.315102
     52          1           0       -2.218125   -5.295221   -1.028324
     53          7           0        0.139807    1.074648   -0.809245
     54          7           0        0.172250   -1.097627    0.917188
 ---------------------------------------------------------------------

 SCF Done:  E(UM062X) =  -1448.58226646     A.U. after   17 cycles

 Alpha  occ. eigenvalues --  -14.86245 -14.85041 -14.73132 -14.73093 -10.62271
 Alpha  occ. eigenvalues --  -10.61958 -10.61608 -10.61323 -10.60286 -10.60221
 Alpha  occ. eigenvalues --  -10.59204 -10.58979 -10.58855 -10.58833 -10.58817
 Alpha  occ. eigenvalues --  -10.58742 -10.58581 -10.58365 -10.58333 -10.58193
 Alpha  occ. eigenvalues --  -10.58135 -10.58110 -10.58103 -10.58096 -10.58062
 Alpha  occ. eigenvalues --  -10.57918 -10.57762 -10.57692 -10.57691 -10.57615
 Alpha  occ. eigenvalues --  -10.57602 -10.57545 -10.57516 -10.57317 -10.55668
 Alpha  occ. eigenvalues --  -10.55608  -1.15611  -1.13462  -1.00694  -0.98824
 Alpha  occ. eigenvalues --   -0.98651  -0.98238  -0.97843  -0.97730  -0.95762
 Alpha  occ. eigenvalues --   -0.91707  -0.91083  -0.88402  -0.88143  -0.87723
 Alpha  occ. eigenvalues --   -0.87520  -0.84771  -0.84569  -0.83886  -0.83130
 Alpha  occ. eigenvalues --   -0.77685  -0.76184  -0.73837  -0.73215  -0.72556
 Alpha  occ. eigenvalues --   -0.71677  -0.69577  -0.69215  -0.68963  -0.68295
 Alpha  occ. eigenvalues --   -0.65070  -0.64168  -0.62616  -0.61828  -0.61759
 Alpha  occ. eigenvalues --   -0.60703  -0.59438  -0.58698  -0.56123  -0.55823
 Alpha  occ. eigenvalues --   -0.55125  -0.55100  -0.54250  -0.53930  -0.53291
 Alpha  occ. eigenvalues --   -0.53168  -0.53022  -0.52620  -0.52068  -0.51818
 Alpha  occ. eigenvalues --   -0.51412  -0.51298  -0.50818  -0.49222  -0.47440
 Alpha  occ. eigenvalues --   -0.46589  -0.46340  -0.45816  -0.45613  -0.45241
 Alpha  occ. eigenvalues --   -0.45050  -0.44672  -0.43397  -0.42901  -0.42600
 Alpha  occ. eigenvalues --   -0.42452  -0.41904  -0.41719  -0.40660  -0.40586
 Alpha  occ. eigenvalues --   -0.40551  -0.39614  -0.37272  -0.36706  -0.36566
 Alpha  occ. eigenvalues --   -0.36494  -0.34546  -0.33263  -0.32975  -0.30948
 Alpha  occ. eigenvalues --   -0.29955  -0.29139  -0.28668  -0.27749  -0.15406
 Alpha virt. eigenvalues --   -0.03140  -0.02507   0.00060   0.00248   0.01283
 Alpha virt. eigenvalues --    0.02917   0.03419   0.04875   0.05481   0.09001
 Alpha virt. eigenvalues --    0.10302   0.11330   0.11539   0.12137   0.12199

  Beta  occ. eigenvalues --  -14.85937 -14.84818 -14.72942 -14.72892 -10.62284
  Beta  occ. eigenvalues --  -10.61976 -10.61607 -10.61333 -10.60049 -10.59980
  Beta  occ. eigenvalues --  -10.59156 -10.58912 -10.58843 -10.58834 -10.58767
  Beta  occ. eigenvalues --  -10.58732 -10.58517 -10.58361 -10.58322 -10.58179
  Beta  occ. eigenvalues --  -10.58100 -10.58088 -10.58083 -10.58077 -10.58058
  Beta  occ. eigenvalues --  -10.57916 -10.57775 -10.57762 -10.57664 -10.57649
  Beta  occ. eigenvalues --  -10.57621 -10.57321 -10.57295 -10.57270 -10.55738
  Beta  occ. eigenvalues --  -10.55682  -1.14768  -1.12751  -1.00215  -0.98500
  Beta  occ. eigenvalues --   -0.98314  -0.97904  -0.97724  -0.97147  -0.95257
  Beta  occ. eigenvalues --   -0.91407  -0.90817  -0.88172  -0.87660  -0.87360
  Beta  occ. eigenvalues --   -0.87299  -0.84690  -0.84161  -0.83802  -0.82544
  Beta  occ. eigenvalues --   -0.77166  -0.75926  -0.73439  -0.72892  -0.72240
  Beta  occ. eigenvalues --   -0.71441  -0.69243  -0.69013  -0.68673  -0.68174
  Beta  occ. eigenvalues --   -0.64676  -0.63853  -0.62383  -0.61630  -0.61508
  Beta  occ. eigenvalues --   -0.60492  -0.58328  -0.58265  -0.55935  -0.55625
  Beta  occ. eigenvalues --   -0.54961  -0.54896  -0.53772  -0.53701  -0.52969
  Beta  occ. eigenvalues --   -0.52734  -0.52568  -0.52211  -0.51926  -0.51712
  Beta  occ. eigenvalues --   -0.51265  -0.51188  -0.50708  -0.48755  -0.46231
  Beta  occ. eigenvalues --   -0.46061  -0.45851  -0.45533  -0.45306  -0.44983
  Beta  occ. eigenvalues --   -0.44733  -0.44263  -0.43260  -0.42502  -0.42362
  Beta  occ. eigenvalues --   -0.41867  -0.41280  -0.40921  -0.40019  -0.39902
  Beta  occ. eigenvalues --   -0.38866  -0.37634  -0.36754  -0.36376  -0.36195
  Beta  occ. eigenvalues --   -0.36128  -0.33589  -0.31933  -0.31515  -0.29853
  Beta  occ. eigenvalues --   -0.28922  -0.27016  -0.26232
  Beta virt. eigenvalues --   -0.18225  -0.02687  -0.02124  -0.01404   0.00595
  Beta virt. eigenvalues --    0.00735   0.01574   0.03928   0.04192   0.05382
  Beta virt. eigenvalues --    0.05827   0.10605   0.11206   0.11603   0.11868

 Mulliken charges and spin densities:
               1          2
     1  C    0.154287   0.279594
     2  C    0.176719   0.277264
     3  C   -0.205573  -0.121441
     4  C    0.086346   0.337363
     5  C    0.082163   0.314941
     6  C   -0.191017  -0.117319
     7  H    0.199929   0.003219
     8  H    0.200391   0.002947
     9  C    0.193252  -0.071988
    10  N   -0.490035   0.166074
    11  C    0.190278  -0.076918
    12  N   -0.489736   0.175610
    13  C    0.282822  -0.029442
    14  C    0.273457  -0.029953
    15  C   -0.164275   0.100970
    16  C    0.052094   0.070060
    17  C   -0.152390   0.092973
    18  C    0.052743   0.015207
    19  C   -0.177817  -0.045884
    20  H    0.208722  -0.005046
    21  C   -0.189778  -0.026609
    22  C   -0.167642  -0.022560
    23  H    0.195686  -0.004208
    24  C   -0.190188   0.021224
    25  C   -0.169864   0.108687
    26  H    0.185926   0.001430
    27  H    0.181588   0.000856
    28  C   -0.170801   0.064933
    29  H    0.180757   0.000400
    30  H    0.180292  -0.001386
    31  H    0.179676  -0.005456
    32  H    0.176895  -0.003483
    33  C    0.275843  -0.018648
    34  C    0.280031  -0.014644
    35  C   -0.164969   0.059469
    36  C    0.038879   0.003121
    37  C   -0.174935   0.069447
    38  C    0.042233   0.058328
    39  C   -0.168830  -0.008228
    40  H    0.186213  -0.002850
    41  C   -0.183429   0.022013
    42  C   -0.179081  -0.032962
    43  H    0.202715  -0.003528
    44  C   -0.184577  -0.024131
    45  C   -0.175973   0.034796
    46  H    0.174513  -0.000017
    47  H    0.175611  -0.001264
    48  C   -0.175494   0.079257
    49  H    0.181393   0.001061
    50  H    0.176556   0.000958
    51  H    0.171906  -0.001937
    52  H    0.174996  -0.003955
    53  N   -0.668277   0.183736
    54  N   -0.680233   0.127916
 Sum of Mulliken charges =  -0.00000   2.00000

 Dipole moment (field-independent basis, Debye):
    X=            -16.5415    Y=              0.7007    Z=             -0.1433  Tot=             16.5570
 Quadrupole moment (field-independent basis, Debye-Ang):
   XX=           -270.2371   YY=           -178.0463   ZZ=           -202.0338
   XY=             -0.7379   XZ=              3.5037   YZ=             18.4067

 Normal termination of Gaussian 16 at Sun Jul 14 00:30:30 2024.
