 Gaussian 16, Revision C.01,
 Gaussian 16:  ES64L-G16RevC.01  3-Jul-2019

 ----------------------------------------------------------------------
 # 6-31g(d) m062x g09default scf=(xqc,maxcycle=64) force guess=read td
 nosymm
 ----------------------------------------------------------------------

 ----------
 Title Card
 ----------
 Symbolic Z-matrix:
 Charge =  0 Multiplicity = 1

                          Input orientation:
 ---------------------------------------------------------------------
 Center     Atomic      Atomic             Coordinates (Angstroms)
 Number     Number       Type             X           Y           Z
 ---------------------------------------------------------------------
      1          6           0        1.409714    0.495404   -0.480999
      2          6           0        1.419290   -0.496132    0.557401
      3          6           0        2.638056   -0.981428    1.027063
      4          6           0        3.849542   -0.492678    0.494612
      5          6           0        3.812887    0.493586   -0.577335
      6          6           0        2.588108    0.977425   -1.018032
      7          1           0        2.655537   -1.739719    1.782801
      8          1           0        2.554379    1.742000   -1.784086
      9          6           0        4.984898    0.957998   -1.194187
     10          7           0        5.960392    1.374051   -1.753663
     11          6           0        5.079733   -0.981628    1.033245
     12          7           0        6.054930   -1.377554    1.469193
     13          6           0       -0.329027    2.248607   -0.271777
     14          6           0       -0.876243    0.467068   -1.528839
     15          6           0        0.373434    3.166222    0.524261
     16          6           0       -1.690001    2.434360   -0.642654
     17          6           0       -0.833126   -0.724816   -2.232481
     18          6           0       -2.035596    1.279492   -1.457824
     19          6           0       -0.331796    4.284113    0.955454
     20          1           0        1.414680    3.005049    0.764452
     21          6           0       -2.349695    3.563719   -0.203212
     22          6           0       -2.012327   -1.127840   -2.883969
     23          1           0        0.078218   -1.309595   -2.293350
     24          6           0       -3.177277    0.867154   -2.147228
     25          6           0       -1.666930    4.475546    0.593706
     26          1           0        0.177193    5.023398    1.572337
     27          1           0       -3.392572    3.743716   -0.479932
     28          6           0       -3.145854   -0.327059   -2.835673
     29          1           0       -2.014634   -2.064643   -3.429108
     30          1           0       -4.072920    1.498365   -2.139264
     31          1           0       -2.182064    5.377580    0.938381
     32          1           0       -4.048363   -0.659320   -3.379619
     33          6           0       -0.875848   -0.474435    1.605332
     34          6           0       -0.324931   -2.248308    0.356742
     35          6           0       -0.863836    0.689871    2.329088
     36          6           0       -2.043006   -1.276041    1.456064
     37          6           0        0.427937   -3.184718   -0.435747
     38          6           0       -1.664430   -2.393676    0.650847
     39          6           0       -2.061220    1.099627    2.938180
     40          1           0        0.050460    1.271568    2.454276
     41          6           0       -3.223280   -0.860878    2.099643
     42          6           0       -0.354517   -4.294827   -0.919415
     43          1           0        1.442556   -3.071822   -0.625178
     44          6           0       -2.391530   -3.523404    0.141145
     45          6           0       -3.221641    0.313973    2.822804
     46          1           0       -2.083468    2.011746    3.508088
     47          1           0       -4.116695   -1.476078    2.027794
     48          6           0       -1.667824   -4.417336   -0.635469
     49          1           0        0.189706   -5.027002   -1.511071
     50          1           0       -3.425650   -3.639986    0.363475
     51          1           0       -4.128426    0.640335    3.327478
     52          1           0       -2.224494   -5.300165   -1.037713
     53          7           0        0.137598    1.072548   -0.803675
     54          7           0        0.173664   -1.104722    0.907829
 ---------------------------------------------------------------------

 SCF Done:  E(RM062X) =  -1448.66907884     A.U. after   13 cycles

 Excitation energies and oscillator strengths:

 Excited state symmetry could not be determined.
 Excited State   1:      Singlet-?Sym    2.9330 eV  422.72 nm  f=0.0107  <S**2>=0.000
     118 ->120        -0.11264
     119 ->120         0.68440
 This state for optimization and/or second-order correction.
 Total Energy, E(TD-HF/TD-DFT) =  -1448.56129268
 Copying the excited state density for this state as the 1-particle RhoCI density.

 Excited state symmetry could not be determined.
 Excited State   2:      Singlet-?Sym    3.2043 eV  386.93 nm  f=0.0247  <S**2>=0.000
     116 ->120         0.15315
     117 ->120         0.57681
     118 ->120         0.34714

 Excited state symmetry could not be determined.
 Excited State   3:      Singlet-?Sym    3.5472 eV  349.52 nm  f=0.0017  <S**2>=0.000
     117 ->120        -0.35340
     118 ->120         0.59327
     119 ->120         0.12613

 Alpha  occ. eigenvalues --  -14.82446 -14.82425 -14.80421 -14.78938 -10.65642
 Alpha  occ. eigenvalues --  -10.65450 -10.65446 -10.65032 -10.62260 -10.62148
 Alpha  occ. eigenvalues --  -10.61964 -10.61074 -10.59957 -10.59957 -10.59584
 Alpha  occ. eigenvalues --  -10.59527 -10.56531 -10.56392 -10.56129 -10.56116
 Alpha  occ. eigenvalues --  -10.55995 -10.55964 -10.55919 -10.55918 -10.55888
 Alpha  occ. eigenvalues --  -10.55854 -10.55774 -10.55712 -10.55650 -10.55609
 Alpha  occ. eigenvalues --  -10.55607 -10.55462 -10.55154 -10.55118 -10.54982
 Alpha  occ. eigenvalues --  -10.54798  -1.13859  -1.11557  -1.05336  -1.03309
 Alpha  occ. eigenvalues --   -1.01242  -0.96832  -0.96282  -0.95897  -0.95508
 Alpha  occ. eigenvalues --   -0.92260  -0.91789  -0.88463  -0.87571  -0.85818
 Alpha  occ. eigenvalues --   -0.85413  -0.83652  -0.82728  -0.81860  -0.81601
 Alpha  occ. eigenvalues --   -0.78767  -0.76990  -0.73644  -0.73170  -0.70041
 Alpha  occ. eigenvalues --   -0.69802  -0.69378  -0.69098  -0.67177  -0.66444
 Alpha  occ. eigenvalues --   -0.66028  -0.63632  -0.62191  -0.61364  -0.60072
 Alpha  occ. eigenvalues --   -0.59646  -0.58940  -0.58340  -0.56492  -0.55883
 Alpha  occ. eigenvalues --   -0.54090  -0.53601  -0.53299  -0.53045  -0.52574
 Alpha  occ. eigenvalues --   -0.52407  -0.51728  -0.51231  -0.50761  -0.50533
 Alpha  occ. eigenvalues --   -0.49531  -0.49366  -0.49256  -0.49094  -0.48600
 Alpha  occ. eigenvalues --   -0.48464  -0.46269  -0.45937  -0.45283  -0.43975
 Alpha  occ. eigenvalues --   -0.43724  -0.43414  -0.43106  -0.42745  -0.42530
 Alpha  occ. eigenvalues --   -0.42278  -0.42092  -0.41522  -0.41304  -0.40524
 Alpha  occ. eigenvalues --   -0.40246  -0.40204  -0.39724  -0.39363  -0.36311
 Alpha  occ. eigenvalues --   -0.34546  -0.34302  -0.33879  -0.31894  -0.30568
 Alpha  occ. eigenvalues --   -0.27357  -0.26597  -0.26327  -0.25240
 Alpha virt. eigenvalues --   -0.07992  -0.04104  -0.01296  -0.00501   0.02809
 Alpha virt. eigenvalues --    0.03913   0.04063   0.05404   0.05882   0.06357
 Alpha virt. eigenvalues --    0.06937   0.07377   0.07874   0.10940   0.11113

 Mulliken charges:
               1
     1  C    0.218669
     2  C    0.230371
     3  C   -0.191723
     4  C    0.115760
     5  C    0.140021
     6  C   -0.177488
     7  H    0.233554
     8  H    0.237898
     9  C    0.227133
    10  N   -0.452545
    11  C    0.235398
    12  N   -0.426802
    13  C    0.282773
    14  C    0.284254
    15  C   -0.185271
    16  C    0.049085
    17  C   -0.171713
    18  C    0.033725
    19  C   -0.174574
    20  H    0.160228
    21  C   -0.190834
    22  C   -0.166213
    23  H    0.159449
    24  C   -0.182802
    25  C   -0.185209
    26  H    0.166417
    27  H    0.169842
    28  C   -0.181769
    29  H    0.167158
    30  H    0.166233
    31  H    0.159746
    32  H    0.157151
    33  C    0.281942
    34  C    0.279985
    35  C   -0.177517
    36  C    0.026317
    37  C   -0.192191
    38  C    0.019546
    39  C   -0.168532
    40  H    0.160073
    41  C   -0.177331
    42  C   -0.166525
    43  H    0.162422
    44  C   -0.154511
    45  C   -0.179769
    46  H    0.167601
    47  H    0.164935
    48  C   -0.180480
    49  H    0.167017
    50  H    0.174390
    51  H    0.161127
    52  H    0.156290
    53  N   -0.718185
    54  N   -0.714526
 Sum of Mulliken charges =  -0.00000

 Dipole moment (field-independent basis, Debye):
    X=             -5.5589    Y=             -0.0321    Z=              0.2878  Tot=              5.5665
 Quadrupole moment (field-independent basis, Debye-Ang):
   XX=           -237.0274   YY=           -193.5486   ZZ=           -206.1280
   XY=              0.0495   XZ=              1.5806   YZ=             13.2396

 Normal termination of Gaussian 16 at Sat Jul 13 21:09:31 2024.
