 Gaussian 16, Revision C.01,
 Gaussian 16:  ES64L-G16RevC.01  3-Jul-2019

 ----------------------------------------------------------------------
 # 6-31g(d) m062x g09default scf=(xqc,maxcycle=64) force guess=read nos
 ymm
 ----------------------------------------------------------------------

 ----------
 Title Card
 ----------
 Symbolic Z-matrix:
 Charge =  0 Multiplicity = 3

                          Input orientation:
 ---------------------------------------------------------------------
 Center     Atomic      Atomic             Coordinates (Angstroms)
 Number     Number       Type             X           Y           Z
 ---------------------------------------------------------------------
      1          6           0        1.409714    0.495404   -0.480999
      2          6           0        1.419290   -0.496132    0.557401
      3          6           0        2.638056   -0.981428    1.027063
      4          6           0        3.849542   -0.492678    0.494612
      5          6           0        3.812887    0.493586   -0.577335
      6          6           0        2.588108    0.977425   -1.018032
      7          1           0        2.655537   -1.739719    1.782801
      8          1           0        2.554379    1.742000   -1.784086
      9          6           0        4.984898    0.957998   -1.194187
     10          7           0        5.960392    1.374051   -1.753663
     11          6           0        5.079733   -0.981628    1.033245
     12          7           0        6.054930   -1.377554    1.469193
     13          6           0       -0.329027    2.248607   -0.271777
     14          6           0       -0.876243    0.467068   -1.528839
     15          6           0        0.373434    3.166222    0.524261
     16          6           0       -1.690001    2.434360   -0.642654
     17          6           0       -0.833126   -0.724816   -2.232481
     18          6           0       -2.035596    1.279492   -1.457824
     19          6           0       -0.331796    4.284113    0.955454
     20          1           0        1.414680    3.005049    0.764452
     21          6           0       -2.349695    3.563719   -0.203212
     22          6           0       -2.012327   -1.127840   -2.883969
     23          1           0        0.078218   -1.309595   -2.293350
     24          6           0       -3.177277    0.867154   -2.147228
     25          6           0       -1.666930    4.475546    0.593706
     26          1           0        0.177193    5.023398    1.572337
     27          1           0       -3.392572    3.743716   -0.479932
     28          6           0       -3.145854   -0.327059   -2.835673
     29          1           0       -2.014634   -2.064643   -3.429108
     30          1           0       -4.072920    1.498365   -2.139264
     31          1           0       -2.182064    5.377580    0.938381
     32          1           0       -4.048363   -0.659320   -3.379619
     33          6           0       -0.875848   -0.474435    1.605332
     34          6           0       -0.324931   -2.248308    0.356742
     35          6           0       -0.863836    0.689871    2.329088
     36          6           0       -2.043006   -1.276041    1.456064
     37          6           0        0.427937   -3.184718   -0.435747
     38          6           0       -1.664430   -2.393676    0.650847
     39          6           0       -2.061220    1.099627    2.938180
     40          1           0        0.050460    1.271568    2.454276
     41          6           0       -3.223280   -0.860878    2.099643
     42          6           0       -0.354517   -4.294827   -0.919415
     43          1           0        1.442556   -3.071822   -0.625178
     44          6           0       -2.391530   -3.523404    0.141145
     45          6           0       -3.221641    0.313973    2.822804
     46          1           0       -2.083468    2.011746    3.508088
     47          1           0       -4.116695   -1.476078    2.027794
     48          6           0       -1.667824   -4.417336   -0.635469
     49          1           0        0.189706   -5.027002   -1.511071
     50          1           0       -3.425650   -3.639986    0.363475
     51          1           0       -4.128426    0.640335    3.327478
     52          1           0       -2.224494   -5.300165   -1.037713
     53          7           0        0.137598    1.072548   -0.803675
     54          7           0        0.173664   -1.104722    0.907829
 ---------------------------------------------------------------------

 SCF Done:  E(UM062X) =  -1448.56119571     A.U. after   24 cycles

 Alpha  occ. eigenvalues --  -14.86222 -14.84850 -14.73800 -14.72808 -10.62303
 Alpha  occ. eigenvalues --  -10.61863 -10.61536 -10.61109 -10.60467 -10.60297
 Alpha  occ. eigenvalues --  -10.59187 -10.58962 -10.58810 -10.58790 -10.58740
 Alpha  occ. eigenvalues --  -10.58720 -10.58645 -10.58514 -10.58414 -10.58336
 Alpha  occ. eigenvalues --  -10.58218 -10.58162 -10.58032 -10.57980 -10.57969
 Alpha  occ. eigenvalues --  -10.57944 -10.57875 -10.57820 -10.57739 -10.57699
 Alpha  occ. eigenvalues --  -10.57657 -10.57528 -10.57437 -10.57228 -10.56200
 Alpha  occ. eigenvalues --  -10.55402  -1.15608  -1.13548  -1.00793  -0.99314
 Alpha  occ. eigenvalues --   -0.98756  -0.98245  -0.97660  -0.97360  -0.95429
 Alpha  occ. eigenvalues --   -0.91693  -0.91339  -0.88544  -0.88143  -0.87759
 Alpha  occ. eigenvalues --   -0.87320  -0.84737  -0.84571  -0.83699  -0.83172
 Alpha  occ. eigenvalues --   -0.77645  -0.76360  -0.74028  -0.73427  -0.72425
 Alpha  occ. eigenvalues --   -0.71193  -0.69524  -0.69448  -0.69130  -0.68350
 Alpha  occ. eigenvalues --   -0.65161  -0.64217  -0.62584  -0.61730  -0.61652
 Alpha  occ. eigenvalues --   -0.60568  -0.59516  -0.58740  -0.56218  -0.55632
 Alpha  occ. eigenvalues --   -0.55581  -0.54692  -0.54324  -0.54074  -0.53459
 Alpha  occ. eigenvalues --   -0.53161  -0.53099  -0.52625  -0.52188  -0.52023
 Alpha  occ. eigenvalues --   -0.51536  -0.51414  -0.50547  -0.49233  -0.47472
 Alpha  occ. eigenvalues --   -0.46787  -0.46343  -0.45788  -0.45421  -0.45301
 Alpha  occ. eigenvalues --   -0.44648  -0.44048  -0.43498  -0.43187  -0.42852
 Alpha  occ. eigenvalues --   -0.42573  -0.42053  -0.41415  -0.40812  -0.40716
 Alpha  occ. eigenvalues --   -0.40619  -0.39439  -0.37421  -0.37199  -0.36426
 Alpha  occ. eigenvalues --   -0.35687  -0.34597  -0.33197  -0.32929  -0.31003
 Alpha  occ. eigenvalues --   -0.29889  -0.29206  -0.28358  -0.27894  -0.15439
 Alpha virt. eigenvalues --   -0.03325  -0.03238  -0.00084   0.00269   0.01610
 Alpha virt. eigenvalues --    0.03210   0.03582   0.04763   0.05748   0.08722
 Alpha virt. eigenvalues --    0.09663   0.11370   0.11548   0.11980   0.12086

  Beta  occ. eigenvalues --  -14.85911 -14.84621 -14.73556 -14.72641 -10.62318
  Beta  occ. eigenvalues --  -10.61882 -10.61534 -10.61116 -10.60248 -10.60034
  Beta  occ. eigenvalues --  -10.59137 -10.58894 -10.58802 -10.58757 -10.58727
  Beta  occ. eigenvalues --  -10.58707 -10.58585 -10.58456 -10.58429 -10.58359
  Beta  occ. eigenvalues --  -10.58177 -10.58175 -10.58017 -10.57940 -10.57935
  Beta  occ. eigenvalues --  -10.57875 -10.57850 -10.57843 -10.57784 -10.57666
  Beta  occ. eigenvalues --  -10.57660 -10.57486 -10.57211 -10.57186 -10.56283
  Beta  occ. eigenvalues --  -10.55467  -1.14767  -1.12817  -1.00306  -0.98840
  Beta  occ. eigenvalues --   -0.98599  -0.97918  -0.97538  -0.96783  -0.94847
  Beta  occ. eigenvalues --   -0.91382  -0.91040  -0.88318  -0.87682  -0.87474
  Beta  occ. eigenvalues --   -0.87017  -0.84605  -0.84202  -0.83596  -0.82620
  Beta  occ. eigenvalues --   -0.77142  -0.76130  -0.73602  -0.73087  -0.72107
  Beta  occ. eigenvalues --   -0.70947  -0.69236  -0.69181  -0.68984  -0.68105
  Beta  occ. eigenvalues --   -0.64781  -0.63909  -0.62358  -0.61502  -0.61423
  Beta  occ. eigenvalues --   -0.60359  -0.58465  -0.58253  -0.56032  -0.55439
  Beta  occ. eigenvalues --   -0.55389  -0.54548  -0.54051  -0.53599  -0.53192
  Beta  occ. eigenvalues --   -0.52697  -0.52484  -0.52328  -0.52056  -0.51906
  Beta  occ. eigenvalues --   -0.51442  -0.51255  -0.50461  -0.48732  -0.46326
  Beta  occ. eigenvalues --   -0.46066  -0.45846  -0.45604  -0.45174  -0.44942
  Beta  occ. eigenvalues --   -0.44237  -0.43831  -0.43418  -0.42902  -0.42581
  Beta  occ. eigenvalues --   -0.41590  -0.41449  -0.40927  -0.40094  -0.39943
  Beta  occ. eigenvalues --   -0.39123  -0.37393  -0.37098  -0.36655  -0.35923
  Beta  occ. eigenvalues --   -0.35289  -0.33666  -0.31900  -0.31461  -0.29792
  Beta  occ. eigenvalues --   -0.28562  -0.27089  -0.26358
  Beta virt. eigenvalues --   -0.18264  -0.02993  -0.02736  -0.01421   0.00443
  Beta virt. eigenvalues --    0.00783   0.01907   0.04095   0.04389   0.05237
  Beta virt. eigenvalues --    0.06122   0.10051   0.11012   0.11445   0.11975

 Mulliken charges and spin densities:
               1          2
     1  C    0.157618   0.260169
     2  C    0.170358   0.305300
     3  C   -0.200106  -0.127872
     4  C    0.072365   0.331924
     5  C    0.098582   0.315789
     6  C   -0.187270  -0.114519
     7  H    0.199927   0.003424
     8  H    0.202068   0.002877
     9  C    0.183256  -0.090137
    10  N   -0.508412   0.211649
    11  C    0.197277  -0.065717
    12  N   -0.471556   0.146735
    13  C    0.277489  -0.029811
    14  C    0.280475  -0.029237
    15  C   -0.162928   0.101470
    16  C    0.059620   0.071478
    17  C   -0.159176   0.088241
    18  C    0.037954   0.012625
    19  C   -0.179042  -0.045850
    20  H    0.208581  -0.004898
    21  C   -0.190700  -0.027470
    22  C   -0.165877  -0.017049
    23  H    0.194935  -0.004066
    24  C   -0.177336   0.023782
    25  C   -0.168951   0.107109
    26  H    0.185785   0.001429
    27  H    0.181362   0.000917
    28  C   -0.172491   0.054475
    29  H    0.181997   0.000203
    30  H    0.179780  -0.001481
    31  H    0.179304  -0.005415
    32  H    0.174271  -0.003054
    33  C    0.275802  -0.016380
    34  C    0.273066  -0.014136
    35  C   -0.176797   0.054075
    36  C    0.025316   0.000473
    37  C   -0.174255   0.089605
    38  C    0.024491   0.054562
    39  C   -0.169499  -0.003981
    40  H    0.185679  -0.002505
    41  C   -0.174378   0.023227
    42  C   -0.172903  -0.035176
    43  H    0.202043  -0.004313
    44  C   -0.156308  -0.024841
    45  C   -0.175772   0.027511
    46  H    0.175644  -0.000186
    47  H    0.173268  -0.001275
    48  C   -0.171395   0.067199
    49  H    0.181836   0.001127
    50  H    0.180640   0.000973
    51  H    0.171207  -0.001578
    52  H    0.169545  -0.003553
    53  N   -0.670131   0.184886
    54  N   -0.676258   0.131265
 Sum of Mulliken charges =  -0.00000   2.00000

 Dipole moment (field-independent basis, Debye):
    X=            -16.3354    Y=              0.5930    Z=              0.0161  Tot=             16.3461
 Quadrupole moment (field-independent basis, Debye-Ang):
   XX=           -270.2849   YY=           -178.1042   ZZ=           -202.3657
   XY=             -1.4463   XZ=              4.1604   YZ=             18.1563

 Normal termination of Gaussian 16 at Sat Jul 13 20:59:48 2024.
