 Gaussian 16, Revision C.01,
 Gaussian 16:  ES64L-G16RevC.01  3-Jul-2019

 ----------------------------------------------------------------------
 # 6-31g(d) m062x g09default scf=(xqc,maxcycle=64) force guess=read td
 nosymm
 ----------------------------------------------------------------------

 ----------
 Title Card
 ----------
 Symbolic Z-matrix:
 Charge =  0 Multiplicity = 1

                          Input orientation:
 ---------------------------------------------------------------------
 Center     Atomic      Atomic             Coordinates (Angstroms)
 Number     Number       Type             X           Y           Z
 ---------------------------------------------------------------------
      1          6           0        1.405863    0.494958   -0.483606
      2          6           0        1.423905   -0.501475    0.560729
      3          6           0        2.633702   -0.973365    1.021977
      4          6           0        3.845819   -0.495285    0.503801
      5          6           0        3.817556    0.489523   -0.577735
      6          6           0        2.583712    0.970748   -1.021621
      7          1           0        2.652948   -1.738855    1.793612
      8          1           0        2.554358    1.726637   -1.801684
      9          6           0        5.001375    0.965179   -1.196290
     10          7           0        5.952572    1.375471   -1.725448
     11          6           0        5.068966   -0.980684    1.028952
     12          7           0        6.065052   -1.391266    1.468277
     13          6           0       -0.326923    2.250922   -0.278862
     14          6           0       -0.875958    0.473951   -1.535086
     15          6           0        0.366621    3.164348    0.526575
     16          6           0       -1.684942    2.434216   -0.649366
     17          6           0       -0.832105   -0.723153   -2.246722
     18          6           0       -2.037209    1.278286   -1.466726
     19          6           0       -0.331968    4.284327    0.954102
     20          1           0        1.407639    2.996550    0.781502
     21          6           0       -2.357801    3.561289   -0.208390
     22          6           0       -2.006037   -1.124967   -2.887678
     23          1           0        0.082370   -1.301433   -2.304743
     24          6           0       -3.180752    0.873852   -2.133643
     25          6           0       -1.672286    4.481983    0.592952
     26          1           0        0.170346    5.023269    1.568724
     27          1           0       -3.395225    3.735887   -0.475997
     28          6           0       -3.157293   -0.339969   -2.839621
     29          1           0       -2.013035   -2.061595   -3.434792
     30          1           0       -4.082114    1.478295   -2.112404
     31          1           0       -2.187806    5.371282    0.939358
     32          1           0       -4.048866   -0.666395   -3.363734
     33          6           0       -0.873706   -0.485516    1.603440
     34          6           0       -0.302412   -2.261581    0.349369
     35          6           0       -0.856814    0.694704    2.343055
     36          6           0       -2.043016   -1.266457    1.467011
     37          6           0        0.392589   -3.189322   -0.437765
     38          6           0       -1.679546   -2.411336    0.651465
     39          6           0       -2.052951    1.095521    2.937237
     40          1           0        0.060372    1.260811    2.465624
     41          6           0       -3.217893   -0.860300    2.090268
     42          6           0       -0.323709   -4.273893   -0.919809
     43          1           0        1.450695   -3.061289   -0.642282
     44          6           0       -2.373861   -3.507837    0.151058
     45          6           0       -3.216210    0.329149    2.820660
     46          1           0       -2.074104    2.017170    3.510716
     47          1           0       -4.121729   -1.458260    2.012549
     48          6           0       -1.689765   -4.432540   -0.633933
     49          1           0        0.184955   -5.021120   -1.520754
     50          1           0       -3.430256   -3.640199    0.365233
     51          1           0       -4.126046    0.655960    3.313053
     52          1           0       -2.217790   -5.295233   -1.027916
     53          7           0        0.140399    1.074480   -0.809585
     54          7           0        0.172001   -1.096731    0.915083
 ---------------------------------------------------------------------

 SCF Done:  E(RM062X) =  -1448.68894341     A.U. after   10 cycles

 Excitation energies and oscillator strengths:

 Excited state symmetry could not be determined.
 Excited State   1:      Singlet-?Sym    2.8971 eV  427.96 nm  f=0.0111  <S**2>=0.000
     119 ->120         0.68979
 This state for optimization and/or second-order correction.
 Total Energy, E(TD-HF/TD-DFT) =  -1448.58247683
 Copying the excited state density for this state as the 1-particle RhoCI density.

 Excited state symmetry could not be determined.
 Excited State   2:      Singlet-?Sym    3.1604 eV  392.31 nm  f=0.0249  <S**2>=0.000
     118 ->120         0.68832

 Excited state symmetry could not be determined.
 Excited State   3:      Singlet-?Sym    3.5995 eV  344.45 nm  f=0.0021  <S**2>=0.000
     117 ->120         0.69545

 Alpha  occ. eigenvalues --  -14.82679 -14.82483 -14.79580 -14.79570 -10.65577
 Alpha  occ. eigenvalues --  -10.65474 -10.65331 -10.65255 -10.62065 -10.61982
 Alpha  occ. eigenvalues --  -10.61580 -10.61570 -10.60033 -10.59943 -10.59733
 Alpha  occ. eigenvalues --  -10.59620 -10.56235 -10.56144 -10.56051 -10.56028
 Alpha  occ. eigenvalues --  -10.56023 -10.55971 -10.55947 -10.55942 -10.55864
 Alpha  occ. eigenvalues --  -10.55840 -10.55806 -10.55697 -10.55666 -10.55663
 Alpha  occ. eigenvalues --  -10.55517 -10.55431 -10.55258 -10.55168 -10.54956
 Alpha  occ. eigenvalues --  -10.54889  -1.13863  -1.11548  -1.05125  -1.03423
 Alpha  occ. eigenvalues --   -1.01708  -0.96818  -0.96286  -0.95889  -0.95573
 Alpha  occ. eigenvalues --   -0.92247  -0.91689  -0.88371  -0.87631  -0.85716
 Alpha  occ. eigenvalues --   -0.85326  -0.83724  -0.82619  -0.81961  -0.81847
 Alpha  occ. eigenvalues --   -0.78794  -0.76889  -0.73328  -0.72989  -0.70011
 Alpha  occ. eigenvalues --   -0.69907  -0.69734  -0.69175  -0.66609  -0.66282
 Alpha  occ. eigenvalues --   -0.66232  -0.63690  -0.62232  -0.61348  -0.60153
 Alpha  occ. eigenvalues --   -0.59719  -0.59015  -0.58442  -0.56301  -0.55901
 Alpha  occ. eigenvalues --   -0.53848  -0.53486  -0.53155  -0.53105  -0.52703
 Alpha  occ. eigenvalues --   -0.52496  -0.51410  -0.51284  -0.50673  -0.50600
 Alpha  occ. eigenvalues --   -0.49315  -0.49223  -0.49200  -0.49147  -0.48667
 Alpha  occ. eigenvalues --   -0.48452  -0.46176  -0.46038  -0.45246  -0.44042
 Alpha  occ. eigenvalues --   -0.43755  -0.43445  -0.43261  -0.43054  -0.42638
 Alpha  occ. eigenvalues --   -0.42258  -0.42175  -0.42053  -0.40716  -0.40634
 Alpha  occ. eigenvalues --   -0.40363  -0.40146  -0.39819  -0.39429  -0.36451
 Alpha  occ. eigenvalues --   -0.34544  -0.34415  -0.33903  -0.31853  -0.30533
 Alpha  occ. eigenvalues --   -0.27400  -0.26673  -0.26412  -0.25136
 Alpha virt. eigenvalues --   -0.08055  -0.03877  -0.00505  -0.00299   0.02749
 Alpha virt. eigenvalues --    0.03531   0.04601   0.05371   0.05687   0.05912
 Alpha virt. eigenvalues --    0.07116   0.07434   0.07715   0.10927   0.11073

 Mulliken charges:
               1
     1  C    0.220005
     2  C    0.234088
     3  C   -0.197116
     4  C    0.130083
     5  C    0.125581
     6  C   -0.181440
     7  H    0.234806
     8  H    0.236896
     9  C    0.234582
    10  N   -0.439403
    11  C    0.231822
    12  N   -0.439648
    13  C    0.287489
    14  C    0.277462
    15  C   -0.185305
    16  C    0.042190
    17  C   -0.165783
    18  C    0.047734
    19  C   -0.173883
    20  H    0.159849
    21  C   -0.190158
    22  C   -0.166989
    23  H    0.159253
    24  C   -0.195006
    25  C   -0.186225
    26  H    0.166556
    27  H    0.170151
    28  C   -0.181899
    29  H    0.165772
    30  H    0.166800
    31  H    0.160434
    32  H    0.159727
    33  C    0.281218
    34  C    0.285102
    35  C   -0.166656
    36  C    0.039975
    37  C   -0.186347
    38  C    0.037914
    39  C   -0.167312
    40  H    0.159521
    41  C   -0.186697
    42  C   -0.174719
    43  H    0.160789
    44  C   -0.182120
    45  C   -0.180815
    46  H    0.165977
    47  H    0.166947
    48  C   -0.186042
    49  H    0.166740
    50  H    0.170196
    51  H    0.161208
    52  H    0.161704
    53  N   -0.717086
    54  N   -0.717921
 Sum of Mulliken charges =  -0.00000

 Dipole moment (field-independent basis, Debye):
    X=             -5.5584    Y=             -0.0194    Z=              0.2143  Tot=              5.5626
 Quadrupole moment (field-independent basis, Debye-Ang):
   XX=           -236.7813   YY=           -193.5332   ZZ=           -206.0699
   XY=              0.0403   XZ=              1.6465   YZ=             13.4321

 Normal termination of Gaussian 16 at Sun Jul 14 00:51:04 2024.
