 Gaussian 16, Revision C.01,
 Gaussian 16:  ES64L-G16RevC.01  3-Jul-2019

 ----------------------------------------------------------------------
 # 6-31g(d) m062x g09default scf=(xqc,maxcycle=64) force guess=read nos
 ymm
 ----------------------------------------------------------------------

 ----------
 Title Card
 ----------
 Symbolic Z-matrix:
 Charge =  0 Multiplicity = 3

                          Input orientation:
 ---------------------------------------------------------------------
 Center     Atomic      Atomic             Coordinates (Angstroms)
 Number     Number       Type             X           Y           Z
 ---------------------------------------------------------------------
      1          6           0        1.405863    0.494958   -0.483606
      2          6           0        1.423905   -0.501475    0.560729
      3          6           0        2.633702   -0.973365    1.021977
      4          6           0        3.845819   -0.495285    0.503801
      5          6           0        3.817556    0.489523   -0.577735
      6          6           0        2.583712    0.970748   -1.021621
      7          1           0        2.652948   -1.738855    1.793612
      8          1           0        2.554358    1.726637   -1.801684
      9          6           0        5.001375    0.965179   -1.196290
     10          7           0        5.952572    1.375471   -1.725448
     11          6           0        5.068966   -0.980684    1.028952
     12          7           0        6.065052   -1.391266    1.468277
     13          6           0       -0.326923    2.250922   -0.278862
     14          6           0       -0.875958    0.473951   -1.535086
     15          6           0        0.366621    3.164348    0.526575
     16          6           0       -1.684942    2.434216   -0.649366
     17          6           0       -0.832105   -0.723153   -2.246722
     18          6           0       -2.037209    1.278286   -1.466726
     19          6           0       -0.331968    4.284327    0.954102
     20          1           0        1.407639    2.996550    0.781502
     21          6           0       -2.357801    3.561289   -0.208390
     22          6           0       -2.006037   -1.124967   -2.887678
     23          1           0        0.082370   -1.301433   -2.304743
     24          6           0       -3.180752    0.873852   -2.133643
     25          6           0       -1.672286    4.481983    0.592952
     26          1           0        0.170346    5.023269    1.568724
     27          1           0       -3.395225    3.735887   -0.475997
     28          6           0       -3.157293   -0.339969   -2.839621
     29          1           0       -2.013035   -2.061595   -3.434792
     30          1           0       -4.082114    1.478295   -2.112404
     31          1           0       -2.187806    5.371282    0.939358
     32          1           0       -4.048866   -0.666395   -3.363734
     33          6           0       -0.873706   -0.485516    1.603440
     34          6           0       -0.302412   -2.261581    0.349369
     35          6           0       -0.856814    0.694704    2.343055
     36          6           0       -2.043016   -1.266457    1.467011
     37          6           0        0.392589   -3.189322   -0.437765
     38          6           0       -1.679546   -2.411336    0.651465
     39          6           0       -2.052951    1.095521    2.937237
     40          1           0        0.060372    1.260811    2.465624
     41          6           0       -3.217893   -0.860300    2.090268
     42          6           0       -0.323709   -4.273893   -0.919809
     43          1           0        1.450695   -3.061289   -0.642282
     44          6           0       -2.373861   -3.507837    0.151058
     45          6           0       -3.216210    0.329149    2.820660
     46          1           0       -2.074104    2.017170    3.510716
     47          1           0       -4.121729   -1.458260    2.012549
     48          6           0       -1.689765   -4.432540   -0.633933
     49          1           0        0.184955   -5.021120   -1.520754
     50          1           0       -3.430256   -3.640199    0.365233
     51          1           0       -4.126046    0.655960    3.313053
     52          1           0       -2.217790   -5.295233   -1.027916
     53          7           0        0.140399    1.074480   -0.809585
     54          7           0        0.172001   -1.096731    0.915083
 ---------------------------------------------------------------------

 SCF Done:  E(UM062X) =  -1448.58243497     A.U. after   19 cycles

 Alpha  occ. eigenvalues --  -14.86181 -14.85081 -14.73165 -14.73141 -10.62222
 Alpha  occ. eigenvalues --  -10.61922 -10.61624 -10.61349 -10.60329 -10.60263
 Alpha  occ. eigenvalues --  -10.59147 -10.58922 -10.58809 -10.58782 -10.58770
 Alpha  occ. eigenvalues --  -10.58700 -10.58524 -10.58379 -10.58289 -10.58151
 Alpha  occ. eigenvalues --  -10.58149 -10.58121 -10.58114 -10.58076 -10.58069
 Alpha  occ. eigenvalues --  -10.57942 -10.57772 -10.57718 -10.57701 -10.57657
 Alpha  occ. eigenvalues --  -10.57624 -10.57595 -10.57566 -10.57335 -10.55697
 Alpha  occ. eigenvalues --  -10.55651  -1.15582  -1.13461  -1.00701  -0.98832
 Alpha  occ. eigenvalues --   -0.98604  -0.98247  -0.97866  -0.97767  -0.95775
 Alpha  occ. eigenvalues --   -0.91676  -0.91107  -0.88357  -0.88134  -0.87745
 Alpha  occ. eigenvalues --   -0.87531  -0.84729  -0.84564  -0.83907  -0.83128
 Alpha  occ. eigenvalues --   -0.77679  -0.76189  -0.73830  -0.73215  -0.72523
 Alpha  occ. eigenvalues --   -0.71689  -0.69574  -0.69195  -0.68954  -0.68307
 Alpha  occ. eigenvalues --   -0.65068  -0.64182  -0.62569  -0.61834  -0.61740
 Alpha  occ. eigenvalues --   -0.60702  -0.59442  -0.58699  -0.56103  -0.55788
 Alpha  occ. eigenvalues --   -0.55138  -0.55102  -0.54235  -0.53906  -0.53268
 Alpha  occ. eigenvalues --   -0.53163  -0.53032  -0.52622  -0.52017  -0.51839
 Alpha  occ. eigenvalues --   -0.51385  -0.51320  -0.50829  -0.49243  -0.47467
 Alpha  occ. eigenvalues --   -0.46593  -0.46311  -0.45790  -0.45587  -0.45243
 Alpha  occ. eigenvalues --   -0.45061  -0.44666  -0.43360  -0.42877  -0.42618
 Alpha  occ. eigenvalues --   -0.42418  -0.41917  -0.41736  -0.40686  -0.40626
 Alpha  occ. eigenvalues --   -0.40590  -0.39635  -0.37225  -0.36740  -0.36588
 Alpha  occ. eigenvalues --   -0.36524  -0.34514  -0.33291  -0.32976  -0.30978
 Alpha  occ. eigenvalues --   -0.29924  -0.29111  -0.28680  -0.27749  -0.15453
 Alpha virt. eigenvalues --   -0.03094  -0.02513   0.00068   0.00249   0.01274
 Alpha virt. eigenvalues --    0.02952   0.03404   0.04913   0.05477   0.08985
 Alpha virt. eigenvalues --    0.10270   0.11284   0.11559   0.12153   0.12195

  Beta  occ. eigenvalues --  -14.85877 -14.84855 -14.72973 -14.72940 -10.62235
  Beta  occ. eigenvalues --  -10.61939 -10.61624 -10.61359 -10.60092 -10.60022
  Beta  occ. eigenvalues --  -10.59099 -10.58856 -10.58798 -10.58786 -10.58718
  Beta  occ. eigenvalues --  -10.58690 -10.58460 -10.58337 -10.58317 -10.58138
  Beta  occ. eigenvalues --  -10.58103 -10.58101 -10.58092 -10.58076 -10.58056
  Beta  occ. eigenvalues --  -10.57940 -10.57799 -10.57771 -10.57692 -10.57674
  Beta  occ. eigenvalues --  -10.57630 -10.57376 -10.57326 -10.57313 -10.55767
  Beta  occ. eigenvalues --  -10.55725  -1.14746  -1.12744  -1.00219  -0.98455
  Beta  occ. eigenvalues --   -0.98317  -0.97915  -0.97746  -0.97179  -0.95267
  Beta  occ. eigenvalues --   -0.91376  -0.90840  -0.88131  -0.87654  -0.87370
  Beta  occ. eigenvalues --   -0.87317  -0.84644  -0.84167  -0.83821  -0.82540
  Beta  occ. eigenvalues --   -0.77155  -0.75931  -0.73433  -0.72893  -0.72210
  Beta  occ. eigenvalues --   -0.71451  -0.69243  -0.68979  -0.68679  -0.68184
  Beta  occ. eigenvalues --   -0.64675  -0.63867  -0.62337  -0.61635  -0.61489
  Beta  occ. eigenvalues --   -0.60492  -0.58333  -0.58264  -0.55919  -0.55593
  Beta  occ. eigenvalues --   -0.54973  -0.54893  -0.53751  -0.53680  -0.52969
  Beta  occ. eigenvalues --   -0.52739  -0.52555  -0.52210  -0.51878  -0.51737
  Beta  occ. eigenvalues --   -0.51245  -0.51201  -0.50719  -0.48775  -0.46225
  Beta  occ. eigenvalues --   -0.46058  -0.45833  -0.45521  -0.45293  -0.44986
  Beta  occ. eigenvalues --   -0.44741  -0.44258  -0.43222  -0.42522  -0.42328
  Beta  occ. eigenvalues --   -0.41876  -0.41275  -0.40933  -0.40041  -0.39935
  Beta  occ. eigenvalues --   -0.38898  -0.37637  -0.36717  -0.36407  -0.36220
  Beta  occ. eigenvalues --   -0.36147  -0.33575  -0.31933  -0.31543  -0.29818
  Beta  occ. eigenvalues --   -0.28938  -0.27013  -0.26235
  Beta virt. eigenvalues --   -0.18213  -0.02654  -0.02127  -0.01431   0.00601
  Beta virt. eigenvalues --    0.00738   0.01564   0.03939   0.04195   0.05410
  Beta virt. eigenvalues --    0.05824   0.10577   0.11195   0.11625   0.11825

 Mulliken charges and spin densities:
               1          2
     1  C    0.155739   0.280751
     2  C    0.177452   0.278556
     3  C   -0.205389  -0.121963
     4  C    0.086369   0.338401
     5  C    0.082165   0.318059
     6  C   -0.190792  -0.118279
     7  H    0.200339   0.003228
     8  H    0.200742   0.002984
     9  C    0.193483  -0.072833
    10  N   -0.489757   0.167648
    11  C    0.190554  -0.077347
    12  N   -0.489466   0.176271
    13  C    0.282167  -0.028866
    14  C    0.273282  -0.029282
    15  C   -0.164615   0.099046
    16  C    0.052200   0.068811
    17  C   -0.152571   0.090998
    18  C    0.052059   0.015180
    19  C   -0.177999  -0.044988
    20  H    0.208133  -0.004940
    21  C   -0.190062  -0.026045
    22  C   -0.167774  -0.022127
    23  H    0.195082  -0.004123
    24  C   -0.190000   0.020615
    25  C   -0.170011   0.106536
    26  H    0.185560   0.001406
    27  H    0.181251   0.000847
    28  C   -0.171044   0.063831
    29  H    0.180404   0.000398
    30  H    0.180041  -0.001351
    31  H    0.179446  -0.005345
    32  H    0.176632  -0.003422
    33  C    0.275495  -0.018904
    34  C    0.279882  -0.015123
    35  C   -0.164456   0.060070
    36  C    0.039614   0.003589
    37  C   -0.174610   0.070012
    38  C    0.042477   0.058409
    39  C   -0.168778  -0.008725
    40  H    0.186390  -0.002873
    41  C   -0.183785   0.021614
    42  C   -0.179061  -0.033131
    43  H    0.202790  -0.003537
    44  C   -0.184591  -0.024121
    45  C   -0.175710   0.035553
    46  H    0.174696   0.000007
    47  H    0.175764  -0.001250
    48  C   -0.175305   0.079519
    49  H    0.181414   0.001067
    50  H    0.176661   0.000959
    51  H    0.172040  -0.001974
    52  H    0.175079  -0.003969
    53  N   -0.669103   0.180550
    54  N   -0.680523   0.129601
 Sum of Mulliken charges =  -0.00000   2.00000

 Dipole moment (field-independent basis, Debye):
    X=            -16.4744    Y=              0.6431    Z=             -0.1072  Tot=             16.4873
 Quadrupole moment (field-independent basis, Debye-Ang):
   XX=           -270.0543   YY=           -178.1748   ZZ=           -202.0471
   XY=             -0.6986   XZ=              3.4100   YZ=             18.3617

 Normal termination of Gaussian 16 at Sun Jul 14 00:41:35 2024.
