 Gaussian 16, Revision C.01,
 Gaussian 16:  ES64L-G16RevC.01  3-Jul-2019

 ----------------------------------------------------------------------
 # 6-31g(d) m062x g09default scf=(xqc,maxcycle=64) force guess=read td
 nosymm
 ----------------------------------------------------------------------

 ----------
 Title Card
 ----------
 Symbolic Z-matrix:
 Charge =  0 Multiplicity = 1

                          Input orientation:
 ---------------------------------------------------------------------
 Center     Atomic      Atomic             Coordinates (Angstroms)
 Number     Number       Type             X           Y           Z
 ---------------------------------------------------------------------
      1          6           0        1.408794    0.497440   -0.480431
      2          6           0        1.424565   -0.500419    0.559805
      3          6           0        2.635953   -0.974046    1.017193
      4          6           0        3.846765   -0.495933    0.498991
      5          6           0        3.818609    0.492360   -0.577143
      6          6           0        2.583713    0.977146   -1.016128
      7          1           0        2.657791   -1.742803    1.785356
      8          1           0        2.552901    1.746580   -1.782446
      9          6           0        5.004259    0.965039   -1.206501
     10          7           0        5.942175    1.366476   -1.746972
     11          6           0        5.066031   -0.975000    1.026537
     12          7           0        6.068902   -1.381650    1.476158
     13          6           0       -0.329518    2.245104   -0.267306
     14          6           0       -0.877582    0.469773   -1.525045
     15          6           0        0.370644    3.165348    0.525328
     16          6           0       -1.688234    2.429200   -0.638601
     17          6           0       -0.835852   -0.729399   -2.233529
     18          6           0       -2.038475    1.274891   -1.459403
     19          6           0       -0.327142    4.282784    0.958317
     20          1           0        1.418570    3.009070    0.758657
     21          6           0       -2.355770    3.562860   -0.204803
     22          6           0       -2.008114   -1.128208   -2.879956
     23          1           0        0.076013   -1.311713   -2.291171
     24          6           0       -3.175394    0.879742   -2.142000
     25          6           0       -1.667673    4.481449    0.597193
     26          1           0        0.177423    5.021013    1.572344
     27          1           0       -3.389134    3.746655   -0.480732
     28          6           0       -3.154728   -0.336830   -2.845129
     29          1           0       -2.013179   -2.064068   -3.428912
     30          1           0       -4.066429    1.499637   -2.145826
     31          1           0       -2.179302    5.376219    0.935898
     32          1           0       -4.043654   -0.657432   -3.377361
     33          6           0       -0.878198   -0.483269    1.595723
     34          6           0       -0.303847   -2.256385    0.340448
     35          6           0       -0.866124    0.699702    2.333452
     36          6           0       -2.046084   -1.266004    1.463033
     37          6           0        0.391983   -3.192975   -0.433512
     38          6           0       -1.684159   -2.409051    0.643723
     39          6           0       -2.061910    1.092361    2.934581
     40          1           0        0.046904    1.271799    2.452433
     41          6           0       -3.218934   -0.870548    2.096683
     42          6           0       -0.320244   -4.276498   -0.917076
     43          1           0        1.457161   -3.075311   -0.623706
     44          6           0       -2.375171   -3.506547    0.146943
     45          6           0       -3.220494    0.318651    2.828381
     46          1           0       -2.085520    2.013479    3.508908
     47          1           0       -4.117392   -1.477288    2.031169
     48          6           0       -1.693358   -4.431402   -0.637980
     49          1           0        0.188205   -5.028842   -1.509386
     50          1           0       -3.431687   -3.641432    0.365630
     51          1           0       -4.128818    0.638990    3.327582
     52          1           0       -2.218755   -5.291706   -1.036195
     53          7           0        0.138918    1.072579   -0.800970
     54          7           0        0.168289   -1.092876    0.907944
 ---------------------------------------------------------------------

 SCF Done:  E(RM062X) =  -1448.68772069     A.U. after   13 cycles

 Excitation energies and oscillator strengths:

 Excited state symmetry could not be determined.
 Excited State   1:      Singlet-?Sym    2.8862 eV  429.57 nm  f=0.0110  <S**2>=0.000
     119 ->120         0.68939
 This state for optimization and/or second-order correction.
 Total Energy, E(TD-HF/TD-DFT) =  -1448.58165424
 Copying the excited state density for this state as the 1-particle RhoCI density.

 Excited state symmetry could not be determined.
 Excited State   2:      Singlet-?Sym    3.1681 eV  391.35 nm  f=0.0247  <S**2>=0.000
     118 ->120         0.68705

 Excited state symmetry could not be determined.
 Excited State   3:      Singlet-?Sym    3.5983 eV  344.56 nm  f=0.0022  <S**2>=0.000
     117 ->120         0.69348

 Alpha  occ. eigenvalues --  -14.82729 -14.82475 -14.79805 -14.79375 -10.65586
 Alpha  occ. eigenvalues --  -10.65449 -10.65350 -10.65264 -10.62092 -10.61984
 Alpha  occ. eigenvalues --  -10.61757 -10.61428 -10.60039 -10.59933 -10.59740
 Alpha  occ. eigenvalues --  -10.59619 -10.56225 -10.56127 -10.56027 -10.56025
 Alpha  occ. eigenvalues --  -10.56021 -10.55950 -10.55946 -10.55940 -10.55851
 Alpha  occ. eigenvalues --  -10.55837 -10.55796 -10.55678 -10.55651 -10.55650
 Alpha  occ. eigenvalues --  -10.55492 -10.55413 -10.55258 -10.55161 -10.54941
 Alpha  occ. eigenvalues --  -10.54886  -1.13909  -1.11547  -1.05193  -1.03453
 Alpha  occ. eigenvalues --   -1.01722  -0.96826  -0.96260  -0.95873  -0.95553
 Alpha  occ. eigenvalues --   -0.92264  -0.91716  -0.88357  -0.87636  -0.85709
 Alpha  occ. eigenvalues --   -0.85310  -0.83710  -0.82633  -0.81960  -0.81821
 Alpha  occ. eigenvalues --   -0.78803  -0.76918  -0.73309  -0.72984  -0.70028
 Alpha  occ. eigenvalues --   -0.69927  -0.69755  -0.69162  -0.66561  -0.66264
 Alpha  occ. eigenvalues --   -0.66239  -0.63690  -0.62267  -0.61343  -0.60163
 Alpha  occ. eigenvalues --   -0.59735  -0.59013  -0.58444  -0.56333  -0.55900
 Alpha  occ. eigenvalues --   -0.53871  -0.53502  -0.53163  -0.53078  -0.52709
 Alpha  occ. eigenvalues --   -0.52496  -0.51380  -0.51282  -0.50665  -0.50598
 Alpha  occ. eigenvalues --   -0.49296  -0.49217  -0.49171  -0.49139  -0.48654
 Alpha  occ. eigenvalues --   -0.48440  -0.46209  -0.46039  -0.45278  -0.44064
 Alpha  occ. eigenvalues --   -0.43750  -0.43469  -0.43274  -0.43043  -0.42664
 Alpha  occ. eigenvalues --   -0.42326  -0.42245  -0.41934  -0.40695  -0.40586
 Alpha  occ. eigenvalues --   -0.40354  -0.40158  -0.39785  -0.39387  -0.36475
 Alpha  occ. eigenvalues --   -0.34567  -0.34390  -0.33926  -0.31840  -0.30513
 Alpha  occ. eigenvalues --   -0.27392  -0.26669  -0.26419  -0.25070
 Alpha virt. eigenvalues --   -0.08050  -0.03900  -0.00474  -0.00291   0.02722
 Alpha virt. eigenvalues --    0.03556   0.04532   0.05373   0.05636   0.06031
 Alpha virt. eigenvalues --    0.07147   0.07475   0.07691   0.10870   0.11075

 Mulliken charges:
               1
     1  C    0.221260
     2  C    0.235848
     3  C   -0.197580
     4  C    0.134138
     5  C    0.120695
     6  C   -0.182104
     7  H    0.234787
     8  H    0.236892
     9  C    0.236944
    10  N   -0.434755
    11  C    0.229471
    12  N   -0.443167
    13  C    0.286047
    14  C    0.276884
    15  C   -0.186056
    16  C    0.043364
    17  C   -0.166437
    18  C    0.048694
    19  C   -0.173688
    20  H    0.159980
    21  C   -0.190655
    22  C   -0.166911
    23  H    0.159783
    24  C   -0.195888
    25  C   -0.186374
    26  H    0.166607
    27  H    0.170251
    28  C   -0.181596
    29  H    0.165646
    30  H    0.166664
    31  H    0.160211
    32  H    0.159933
    33  C    0.281022
    34  C    0.284665
    35  C   -0.167194
    36  C    0.040470
    37  C   -0.186462
    38  C    0.038519
    39  C   -0.167324
    40  H    0.160070
    41  C   -0.186620
    42  C   -0.175046
    43  H    0.160464
    44  C   -0.182468
    45  C   -0.180618
    46  H    0.165788
    47  H    0.167054
    48  C   -0.187065
    49  H    0.166949
    50  H    0.169964
    51  H    0.161331
    52  H    0.161695
    53  N   -0.716493
    54  N   -0.717588
 Sum of Mulliken charges =  -0.00000

 Dipole moment (field-independent basis, Debye):
    X=             -5.4996    Y=              0.0008    Z=              0.2068  Tot=              5.5035
 Quadrupole moment (field-independent basis, Debye-Ang):
   XX=           -236.7109   YY=           -193.2924   ZZ=           -206.1834
   XY=              0.0646   XZ=              1.7688   YZ=             13.2455

 Normal termination of Gaussian 16 at Sat Jul 13 21:21:46 2024.
