 Gaussian 16, Revision C.01,
 Gaussian 16:  ES64L-G16RevC.01  3-Jul-2019

 ----------------------------------------------------------------------
 # 6-31g(d) m062x g09default scf=(xqc,maxcycle=64) force guess=read nos
 ymm
 ----------------------------------------------------------------------

 ----------
 Title Card
 ----------
 Symbolic Z-matrix:
 Charge =  0 Multiplicity = 3

                          Input orientation:
 ---------------------------------------------------------------------
 Center     Atomic      Atomic             Coordinates (Angstroms)
 Number     Number       Type             X           Y           Z
 ---------------------------------------------------------------------
      1          6           0        1.408794    0.497440   -0.480431
      2          6           0        1.424565   -0.500419    0.559805
      3          6           0        2.635953   -0.974046    1.017193
      4          6           0        3.846765   -0.495933    0.498991
      5          6           0        3.818609    0.492360   -0.577143
      6          6           0        2.583713    0.977146   -1.016128
      7          1           0        2.657791   -1.742803    1.785356
      8          1           0        2.552901    1.746580   -1.782446
      9          6           0        5.004259    0.965039   -1.206501
     10          7           0        5.942175    1.366476   -1.746972
     11          6           0        5.066031   -0.975000    1.026537
     12          7           0        6.068902   -1.381650    1.476158
     13          6           0       -0.329518    2.245104   -0.267306
     14          6           0       -0.877582    0.469773   -1.525045
     15          6           0        0.370644    3.165348    0.525328
     16          6           0       -1.688234    2.429200   -0.638601
     17          6           0       -0.835852   -0.729399   -2.233529
     18          6           0       -2.038475    1.274891   -1.459403
     19          6           0       -0.327142    4.282784    0.958317
     20          1           0        1.418570    3.009070    0.758657
     21          6           0       -2.355770    3.562860   -0.204803
     22          6           0       -2.008114   -1.128208   -2.879956
     23          1           0        0.076013   -1.311713   -2.291171
     24          6           0       -3.175394    0.879742   -2.142000
     25          6           0       -1.667673    4.481449    0.597193
     26          1           0        0.177423    5.021013    1.572344
     27          1           0       -3.389134    3.746655   -0.480732
     28          6           0       -3.154728   -0.336830   -2.845129
     29          1           0       -2.013179   -2.064068   -3.428912
     30          1           0       -4.066429    1.499637   -2.145826
     31          1           0       -2.179302    5.376219    0.935898
     32          1           0       -4.043654   -0.657432   -3.377361
     33          6           0       -0.878198   -0.483269    1.595723
     34          6           0       -0.303847   -2.256385    0.340448
     35          6           0       -0.866124    0.699702    2.333452
     36          6           0       -2.046084   -1.266004    1.463033
     37          6           0        0.391983   -3.192975   -0.433512
     38          6           0       -1.684159   -2.409051    0.643723
     39          6           0       -2.061910    1.092361    2.934581
     40          1           0        0.046904    1.271799    2.452433
     41          6           0       -3.218934   -0.870548    2.096683
     42          6           0       -0.320244   -4.276498   -0.917076
     43          1           0        1.457161   -3.075311   -0.623706
     44          6           0       -2.375171   -3.506547    0.146943
     45          6           0       -3.220494    0.318651    2.828381
     46          1           0       -2.085520    2.013479    3.508908
     47          1           0       -4.117392   -1.477288    2.031169
     48          6           0       -1.693358   -4.431402   -0.637980
     49          1           0        0.188205   -5.028842   -1.509386
     50          1           0       -3.431687   -3.641432    0.365630
     51          1           0       -4.128818    0.638990    3.327582
     52          1           0       -2.218755   -5.291706   -1.036195
     53          7           0        0.138918    1.072579   -0.800970
     54          7           0        0.168289   -1.092876    0.907944
 ---------------------------------------------------------------------

 SCF Done:  E(UM062X) =  -1448.58146480     A.U. after   23 cycles

 Alpha  occ. eigenvalues --  -14.86239 -14.85103 -14.73207 -14.72924 -10.62274
 Alpha  occ. eigenvalues --  -10.61958 -10.61660 -10.61361 -10.60262 -10.60153
 Alpha  occ. eigenvalues --  -10.59244 -10.58965 -10.58859 -10.58829 -10.58825
 Alpha  occ. eigenvalues --  -10.58742 -10.58603 -10.58417 -10.58342 -10.58188
 Alpha  occ. eigenvalues --  -10.58146 -10.58127 -10.58122 -10.58107 -10.58061
 Alpha  occ. eigenvalues --  -10.57935 -10.57808 -10.57733 -10.57655 -10.57627
 Alpha  occ. eigenvalues --  -10.57563 -10.57539 -10.57457 -10.57321 -10.55688
 Alpha  occ. eigenvalues --  -10.55508  -1.15653  -1.13468  -1.00703  -0.98851
 Alpha  occ. eigenvalues --   -0.98650  -0.98274  -0.97863  -0.97634  -0.95744
 Alpha  occ. eigenvalues --   -0.91708  -0.91083  -0.88397  -0.88153  -0.87713
 Alpha  occ. eigenvalues --   -0.87542  -0.84786  -0.84574  -0.83902  -0.83133
 Alpha  occ. eigenvalues --   -0.77677  -0.76182  -0.73828  -0.73239  -0.72571
 Alpha  occ. eigenvalues --   -0.71718  -0.69582  -0.69225  -0.68948  -0.68279
 Alpha  occ. eigenvalues --   -0.65045  -0.64187  -0.62620  -0.61867  -0.61751
 Alpha  occ. eigenvalues --   -0.60723  -0.59457  -0.58688  -0.56132  -0.55837
 Alpha  occ. eigenvalues --   -0.55145  -0.55102  -0.54232  -0.53941  -0.53274
 Alpha  occ. eigenvalues --   -0.53156  -0.53039  -0.52631  -0.52065  -0.51812
 Alpha  occ. eigenvalues --   -0.51415  -0.51315  -0.50818  -0.49216  -0.47421
 Alpha  occ. eigenvalues --   -0.46607  -0.46345  -0.45834  -0.45605  -0.45337
 Alpha  occ. eigenvalues --   -0.45048  -0.44701  -0.43391  -0.42926  -0.42575
 Alpha  occ. eigenvalues --   -0.42416  -0.41899  -0.41714  -0.40628  -0.40556
 Alpha  occ. eigenvalues --   -0.40528  -0.39590  -0.37276  -0.36861  -0.36591
 Alpha  occ. eigenvalues --   -0.36290  -0.34539  -0.33241  -0.32985  -0.30923
 Alpha  occ. eigenvalues --   -0.29973  -0.29145  -0.28697  -0.27717  -0.15349
 Alpha virt. eigenvalues --   -0.03145  -0.02510   0.00054   0.00241   0.01268
 Alpha virt. eigenvalues --    0.02916   0.03384   0.04874   0.05464   0.09065
 Alpha virt. eigenvalues --    0.10282   0.11412   0.11586   0.12151   0.12194

  Beta  occ. eigenvalues --  -14.85930 -14.84880 -14.72996 -14.72744 -10.62288
  Beta  occ. eigenvalues --  -10.61977 -10.61660 -10.61370 -10.60028 -10.59915
  Beta  occ. eigenvalues --  -10.59193 -10.58897 -10.58848 -10.58845 -10.58760
  Beta  occ. eigenvalues --  -10.58733 -10.58537 -10.58371 -10.58371 -10.58176
  Beta  occ. eigenvalues --  -10.58107 -10.58099 -10.58096 -10.58082 -10.58078
  Beta  occ. eigenvalues --  -10.57934 -10.57797 -10.57735 -10.57715 -10.57641
  Beta  occ. eigenvalues --  -10.57632 -10.57300 -10.57297 -10.57201 -10.55765
  Beta  occ. eigenvalues --  -10.55576  -1.14812  -1.12757  -1.00226  -0.98498
  Beta  occ. eigenvalues --   -0.98346  -0.97944  -0.97741  -0.97053  -0.95233
  Beta  occ. eigenvalues --   -0.91407  -0.90821  -0.88168  -0.87672  -0.87351
  Beta  occ. eigenvalues --   -0.87318  -0.84702  -0.84180  -0.83804  -0.82547
  Beta  occ. eigenvalues --   -0.77159  -0.75922  -0.73428  -0.72917  -0.72256
  Beta  occ. eigenvalues --   -0.71482  -0.69252  -0.69010  -0.68662  -0.68161
  Beta  occ. eigenvalues --   -0.64651  -0.63871  -0.62387  -0.61669  -0.61501
  Beta  occ. eigenvalues --   -0.60512  -0.58346  -0.58258  -0.55946  -0.55639
  Beta  occ. eigenvalues --   -0.54980  -0.54893  -0.53781  -0.53690  -0.52952
  Beta  occ. eigenvalues --   -0.52751  -0.52566  -0.52218  -0.51923  -0.51703
  Beta  occ. eigenvalues --   -0.51264  -0.51206  -0.50702  -0.48746  -0.46259
  Beta  occ. eigenvalues --   -0.46068  -0.45846  -0.45550  -0.45330  -0.45042
  Beta  occ. eigenvalues --   -0.44717  -0.44297  -0.43242  -0.42487  -0.42363
  Beta  occ. eigenvalues --   -0.41832  -0.41270  -0.40925  -0.40000  -0.39865
  Beta  occ. eigenvalues --   -0.38861  -0.37613  -0.36749  -0.36544  -0.36186
  Beta  occ. eigenvalues --   -0.35938  -0.33591  -0.31930  -0.31506  -0.29856
  Beta  occ. eigenvalues --   -0.28945  -0.27002  -0.26262
  Beta virt. eigenvalues --   -0.18185  -0.02686  -0.02121  -0.01366   0.00586
  Beta virt. eigenvalues --    0.00727   0.01568   0.03922   0.04164   0.05382
  Beta virt. eigenvalues --    0.05818   0.10593   0.11255   0.11620   0.11965

 Mulliken charges and spin densities:
               1          2
     1  C    0.156164   0.278709
     2  C    0.178629   0.272987
     3  C   -0.206094  -0.120137
     4  C    0.090547   0.332137
     5  C    0.075980   0.318248
     6  C   -0.191747  -0.116526
     7  H    0.199867   0.003211
     8  H    0.199879   0.002923
     9  C    0.195764  -0.068579
    10  N   -0.484635   0.157561
    11  C    0.187167  -0.079764
    12  N   -0.495094   0.183925
    13  C    0.280584  -0.029498
    14  C    0.272936  -0.030025
    15  C   -0.164533   0.101230
    16  C    0.053832   0.073030
    17  C   -0.153270   0.091803
    18  C    0.052869   0.013401
    19  C   -0.177991  -0.046518
    20  H    0.209237  -0.005013
    21  C   -0.190565  -0.028517
    22  C   -0.167508  -0.020866
    23  H    0.196208  -0.004164
    24  C   -0.190558   0.022956
    25  C   -0.169616   0.110787
    26  H    0.186054   0.001448
    27  H    0.181659   0.000938
    28  C   -0.170721   0.062806
    29  H    0.180608   0.000325
    30  H    0.180264  -0.001460
    31  H    0.179771  -0.005554
    32  H    0.177078  -0.003387
    33  C    0.275537  -0.018885
    34  C    0.279586  -0.014639
    35  C   -0.165613   0.059013
    36  C    0.039663   0.001392
    37  C   -0.174762   0.069414
    38  C    0.043115   0.062169
    39  C   -0.168532  -0.006519
    40  H    0.186958  -0.002852
    41  C   -0.183403   0.023912
    42  C   -0.179345  -0.033737
    43  H    0.203122  -0.003487
    44  C   -0.185040  -0.026151
    45  C   -0.175788   0.033047
    46  H    0.174525  -0.000104
    47  H    0.176003  -0.001348
    48  C   -0.176073   0.082766
    49  H    0.181824   0.001080
    50  H    0.176534   0.001022
    51  H    0.172120  -0.001862
    52  H    0.175307  -0.004117
    53  N   -0.667907   0.183592
    54  N   -0.680595   0.127880
 Sum of Mulliken charges =  -0.00000   2.00000

 Dipole moment (field-independent basis, Debye):
    X=            -16.5893    Y=              0.7098    Z=             -0.1476  Tot=             16.6051
 Quadrupole moment (field-independent basis, Debye-Ang):
   XX=           -270.5147   YY=           -177.5478   ZZ=           -202.1589
   XY=             -0.5920   XZ=              3.4946   YZ=             18.2667

 Normal termination of Gaussian 16 at Sat Jul 13 21:12:03 2024.
