 Gaussian 16, Revision C.01,
 Gaussian 16:  ES64L-G16RevC.01  3-Jul-2019

 ----------------------------------------------------------------------
 # 6-31g(d) m062x g09default scf=(xqc,maxcycle=64) force guess=read td
 nosymm
 ----------------------------------------------------------------------

 ----------
 Title Card
 ----------
 Symbolic Z-matrix:
 Charge =  0 Multiplicity = 1

                          Input orientation:
 ---------------------------------------------------------------------
 Center     Atomic      Atomic             Coordinates (Angstroms)
 Number     Number       Type             X           Y           Z
 ---------------------------------------------------------------------
      1          6           0        1.404212    0.496481   -0.475766
      2          6           0        1.432220   -0.501968    0.560188
      3          6           0        2.627542   -0.969725    1.009224
      4          6           0        3.842496   -0.493168    0.497242
      5          6           0        3.828514    0.493585   -0.580409
      6          6           0        2.586387    0.977100   -1.014215
      7          1           0        2.661268   -1.744677    1.786306
      8          1           0        2.550359    1.753506   -1.779786
      9          6           0        4.971459    0.949153   -1.189554
     10          7           0        5.968721    1.378164   -1.768153
     11          6           0        5.104080   -0.989641    1.043495
     12          7           0        6.038709   -1.366695    1.463541
     13          6           0       -0.330714    2.238924   -0.260635
     14          6           0       -0.877832    0.470005   -1.521246
     15          6           0        0.368902    3.163482    0.527482
     16          6           0       -1.687870    2.423521   -0.631839
     17          6           0       -0.837499   -0.732539   -2.231622
     18          6           0       -2.040584    1.270567   -1.459203
     19          6           0       -0.323283    4.281726    0.962175
     20          1           0        1.423481    3.015420    0.749347
     21          6           0       -2.360239    3.561095   -0.205742
     22          6           0       -2.007196   -1.130317   -2.876719
     23          1           0        0.072554   -1.315189   -2.287864
     24          6           0       -3.173757    0.889276   -2.140234
     25          6           0       -1.667346    4.486550    0.600686
     26          1           0        0.178376    5.017673    1.572806
     27          1           0       -3.385896    3.751453   -0.482583
     28          6           0       -3.161820   -0.343842   -2.852472
     29          1           0       -2.010464   -2.062754   -3.428230
     30          1           0       -4.057823    1.503334   -2.155587
     31          1           0       -2.175929    5.375959    0.932810
     32          1           0       -4.039865   -0.656109   -3.376123
     33          6           0       -0.881155   -0.485436    1.587629
     34          6           0       -0.295770   -2.260264    0.327490
     35          6           0       -0.869416    0.704840    2.333676
     36          6           0       -2.048639   -1.261481    1.466218
     37          6           0        0.374374   -3.198591   -0.435513
     38          6           0       -1.691884   -2.414959    0.637308
     39          6           0       -2.063218    1.087498    2.933072
     40          1           0        0.042655    1.273454    2.450091
     41          6           0       -3.215632   -0.876831    2.098627
     42          6           0       -0.304191   -4.262635   -0.912517
     43          1           0        1.463503   -3.082566   -0.618371
     44          6           0       -2.368801   -3.494734    0.152255
     45          6           0       -3.220024    0.318098    2.832630
     46          1           0       -2.088711    2.013881    3.508770
     47          1           0       -4.118506   -1.479837    2.035979
     48          6           0       -1.702041   -4.441232   -0.642896
     49          1           0        0.188712   -5.031569   -1.507433
     50          1           0       -3.434800   -3.642064    0.368217
     51          1           0       -4.129935    0.637511    3.328255
     52          1           0       -2.214505   -5.284396   -1.036204
     53          7           0        0.138453    1.073414   -0.797378
     54          7           0        0.162056   -1.083738    0.902965
 ---------------------------------------------------------------------

 SCF Done:  E(RM062X) =  -1448.65507227     A.U. after   13 cycles

 Excitation energies and oscillator strengths:

 Excited state symmetry could not be determined.
 Excited State   1:      Singlet-?Sym    2.8286 eV  438.32 nm  f=0.0101  <S**2>=0.000
     119 ->120         0.69251
 This state for optimization and/or second-order correction.
 Total Energy, E(TD-HF/TD-DFT) =  -1448.55112323
 Copying the excited state density for this state as the 1-particle RhoCI density.

 Excited state symmetry could not be determined.
 Excited State   2:      Singlet-?Sym    3.1150 eV  398.03 nm  f=0.0258  <S**2>=0.000
     118 ->120         0.69035

 Excited state symmetry could not be determined.
 Excited State   3:      Singlet-?Sym    3.5998 eV  344.42 nm  f=0.0025  <S**2>=0.000
     117 ->120         0.69340

 Alpha  occ. eigenvalues --  -14.82857 -14.82526 -14.81231 -14.77760 -10.65819
 Alpha  occ. eigenvalues --  -10.65539 -10.65447 -10.64882 -10.62814 -10.62159
 Alpha  occ. eigenvalues --  -10.62044 -10.60201 -10.60091 -10.59908 -10.59797
 Alpha  occ. eigenvalues --  -10.59666 -10.56114 -10.56057 -10.56024 -10.55983
 Alpha  occ. eigenvalues --  -10.55974 -10.55907 -10.55906 -10.55851 -10.55813
 Alpha  occ. eigenvalues --  -10.55809 -10.55776 -10.55663 -10.55650 -10.55649
 Alpha  occ. eigenvalues --  -10.55416 -10.55390 -10.55316 -10.55184 -10.54944
 Alpha  occ. eigenvalues --  -10.54890  -1.13983  -1.11537  -1.06668  -1.03636
 Alpha  occ. eigenvalues --   -1.00656  -0.96736  -0.96231  -0.95969  -0.95501
 Alpha  occ. eigenvalues --   -0.92355  -0.91591  -0.88401  -0.87702  -0.85619
 Alpha  occ. eigenvalues --   -0.85214  -0.83755  -0.82545  -0.82029  -0.81931
 Alpha  occ. eigenvalues --   -0.78906  -0.76915  -0.73294  -0.72844  -0.70286
 Alpha  occ. eigenvalues --   -0.69984  -0.69847  -0.69125  -0.66452  -0.66318
 Alpha  occ. eigenvalues --   -0.66005  -0.63676  -0.62365  -0.61335  -0.60232
 Alpha  occ. eigenvalues --   -0.59796  -0.59081  -0.58531  -0.56330  -0.55756
 Alpha  occ. eigenvalues --   -0.53915  -0.53592  -0.53249  -0.52949  -0.52787
 Alpha  occ. eigenvalues --   -0.52497  -0.51342  -0.51262  -0.50678  -0.50552
 Alpha  occ. eigenvalues --   -0.49388  -0.49278  -0.49095  -0.48996  -0.48579
 Alpha  occ. eigenvalues --   -0.48201  -0.46493  -0.45952  -0.45703  -0.44441
 Alpha  occ. eigenvalues --   -0.44066  -0.43868  -0.43738  -0.43489  -0.43018
 Alpha  occ. eigenvalues --   -0.42497  -0.42231  -0.40870  -0.40615  -0.40514
 Alpha  occ. eigenvalues --   -0.40289  -0.39913  -0.39348  -0.38992  -0.36498
 Alpha  occ. eigenvalues --   -0.34694  -0.34423  -0.33896  -0.31734  -0.30427
 Alpha  occ. eigenvalues --   -0.27462  -0.26813  -0.26289  -0.24923
 Alpha virt. eigenvalues --   -0.08232  -0.03853  -0.00340   0.00042   0.02613
 Alpha virt. eigenvalues --    0.03043   0.03299   0.05108   0.05461   0.06925
 Alpha virt. eigenvalues --    0.07646   0.07829   0.07845   0.10578   0.11608

 Mulliken charges:
               1
     1  C    0.220594
     2  C    0.244108
     3  C   -0.210342
     4  C    0.098508
     5  C    0.158412
     6  C   -0.177794
     7  H    0.235653
     8  H    0.236730
     9  C    0.204708
    10  N   -0.458143
    11  C    0.232918
    12  N   -0.390839
    13  C    0.288954
    14  C    0.273485
    15  C   -0.187092
    16  C    0.040019
    17  C   -0.164825
    18  C    0.058167
    19  C   -0.172539
    20  H    0.159694
    21  C   -0.191643
    22  C   -0.167104
    23  H    0.159983
    24  C   -0.204635
    25  C   -0.187372
    26  H    0.166779
    27  H    0.170558
    28  C   -0.180984
    29  H    0.164797
    30  H    0.166872
    31  H    0.160407
    32  H    0.161398
    33  C    0.280668
    34  C    0.285937
    35  C   -0.162653
    36  C    0.049603
    37  C   -0.176459
    38  C    0.052453
    39  C   -0.166748
    40  H    0.159934
    41  C   -0.191816
    42  C   -0.182413
    43  H    0.157743
    44  C   -0.203279
    45  C   -0.181006
    46  H    0.164737
    47  H    0.167849
    48  C   -0.187639
    49  H    0.166251
    50  H    0.167634
    51  H    0.161329
    52  H    0.163639
    53  N   -0.714448
    54  N   -0.720747
 Sum of Mulliken charges =  -0.00000

 Dipole moment (field-independent basis, Debye):
    X=             -5.4623    Y=             -0.0517    Z=              0.2425  Tot=              5.4680
 Quadrupole moment (field-independent basis, Debye-Ang):
   XX=           -236.4585   YY=           -193.1284   ZZ=           -206.2193
   XY=             -0.1874   XZ=              2.2634   YZ=             13.1514

 Normal termination of Gaussian 16 at Sat Jul 13 21:34:16 2024.
