 Gaussian 16, Revision C.01,
 Gaussian 16:  ES64L-G16RevC.01  3-Jul-2019

 ----------------------------------------------------------------------
 # 6-31g(d) m062x g09default scf=(xqc,maxcycle=64) force guess=read nos
 ymm
 ----------------------------------------------------------------------

 ----------
 Title Card
 ----------
 Symbolic Z-matrix:
 Charge =  0 Multiplicity = 3

                          Input orientation:
 ---------------------------------------------------------------------
 Center     Atomic      Atomic             Coordinates (Angstroms)
 Number     Number       Type             X           Y           Z
 ---------------------------------------------------------------------
      1          6           0        1.404212    0.496481   -0.475766
      2          6           0        1.432220   -0.501968    0.560188
      3          6           0        2.627542   -0.969725    1.009224
      4          6           0        3.842496   -0.493168    0.497242
      5          6           0        3.828514    0.493585   -0.580409
      6          6           0        2.586387    0.977100   -1.014215
      7          1           0        2.661268   -1.744677    1.786306
      8          1           0        2.550359    1.753506   -1.779786
      9          6           0        4.971459    0.949153   -1.189554
     10          7           0        5.968721    1.378164   -1.768153
     11          6           0        5.104080   -0.989641    1.043495
     12          7           0        6.038709   -1.366695    1.463541
     13          6           0       -0.330714    2.238924   -0.260635
     14          6           0       -0.877832    0.470005   -1.521246
     15          6           0        0.368902    3.163482    0.527482
     16          6           0       -1.687870    2.423521   -0.631839
     17          6           0       -0.837499   -0.732539   -2.231622
     18          6           0       -2.040584    1.270567   -1.459203
     19          6           0       -0.323283    4.281726    0.962175
     20          1           0        1.423481    3.015420    0.749347
     21          6           0       -2.360239    3.561095   -0.205742
     22          6           0       -2.007196   -1.130317   -2.876719
     23          1           0        0.072554   -1.315189   -2.287864
     24          6           0       -3.173757    0.889276   -2.140234
     25          6           0       -1.667346    4.486550    0.600686
     26          1           0        0.178376    5.017673    1.572806
     27          1           0       -3.385896    3.751453   -0.482583
     28          6           0       -3.161820   -0.343842   -2.852472
     29          1           0       -2.010464   -2.062754   -3.428230
     30          1           0       -4.057823    1.503334   -2.155587
     31          1           0       -2.175929    5.375959    0.932810
     32          1           0       -4.039865   -0.656109   -3.376123
     33          6           0       -0.881155   -0.485436    1.587629
     34          6           0       -0.295770   -2.260264    0.327490
     35          6           0       -0.869416    0.704840    2.333676
     36          6           0       -2.048639   -1.261481    1.466218
     37          6           0        0.374374   -3.198591   -0.435513
     38          6           0       -1.691884   -2.414959    0.637308
     39          6           0       -2.063218    1.087498    2.933072
     40          1           0        0.042655    1.273454    2.450091
     41          6           0       -3.215632   -0.876831    2.098627
     42          6           0       -0.304191   -4.262635   -0.912517
     43          1           0        1.463503   -3.082566   -0.618371
     44          6           0       -2.368801   -3.494734    0.152255
     45          6           0       -3.220024    0.318098    2.832630
     46          1           0       -2.088711    2.013881    3.508770
     47          1           0       -4.118506   -1.479837    2.035979
     48          6           0       -1.702041   -4.441232   -0.642896
     49          1           0        0.188712   -5.031569   -1.507433
     50          1           0       -3.434800   -3.642064    0.368217
     51          1           0       -4.129935    0.637511    3.328255
     52          1           0       -2.214505   -5.284396   -1.036204
     53          7           0        0.138453    1.073414   -0.797378
     54          7           0        0.162056   -1.083738    0.902965
 ---------------------------------------------------------------------

 SCF Done:  E(UM062X) =  -1448.55118678     A.U. after   26 cycles

 Alpha  occ. eigenvalues --  -14.85832 -14.85630 -14.73971 -14.71814 -10.62060
 Alpha  occ. eigenvalues --  -10.61946 -10.61826 -10.61661 -10.60524 -10.60033
 Alpha  occ. eigenvalues --  -10.58989 -10.58697 -10.58668 -10.58644 -10.58639
 Alpha  occ. eigenvalues --  -10.58577 -10.58471 -10.58396 -10.58359 -10.58348
 Alpha  occ. eigenvalues --  -10.58265 -10.58190 -10.58185 -10.58140 -10.58101
 Alpha  occ. eigenvalues --  -10.58052 -10.58001 -10.57912 -10.57892 -10.57758
 Alpha  occ. eigenvalues --  -10.57662 -10.57583 -10.57581 -10.57017 -10.56141
 Alpha  occ. eigenvalues --  -10.54625  -1.15622  -1.13549  -1.01330  -1.00325
 Alpha  occ. eigenvalues --   -0.98460  -0.98313  -0.98130  -0.97125  -0.94645
 Alpha  occ. eigenvalues --   -0.91486  -0.91216  -0.88174  -0.88133  -0.87778
 Alpha  occ. eigenvalues --   -0.87651  -0.84649  -0.84554  -0.84194  -0.83122
 Alpha  occ. eigenvalues --   -0.77634  -0.76265  -0.73661  -0.73250  -0.72630
 Alpha  occ. eigenvalues --   -0.72135  -0.69673  -0.69193  -0.68810  -0.68242
 Alpha  occ. eigenvalues --   -0.65086  -0.64065  -0.62480  -0.62147  -0.61755
 Alpha  occ. eigenvalues --   -0.60863  -0.59481  -0.58744  -0.56173  -0.55771
 Alpha  occ. eigenvalues --   -0.55429  -0.55046  -0.54188  -0.53815  -0.53317
 Alpha  occ. eigenvalues --   -0.53134  -0.53017  -0.52705  -0.51779  -0.51653
 Alpha  occ. eigenvalues --   -0.51602  -0.51183  -0.50807  -0.49181  -0.47526
 Alpha  occ. eigenvalues --   -0.46807  -0.46350  -0.46163  -0.45683  -0.45540
 Alpha  occ. eigenvalues --   -0.45211  -0.44759  -0.43319  -0.42921  -0.42592
 Alpha  occ. eigenvalues --   -0.42119  -0.41879  -0.41345  -0.41175  -0.40605
 Alpha  occ. eigenvalues --   -0.40482  -0.39374  -0.38752  -0.37073  -0.37035
 Alpha  occ. eigenvalues --   -0.34518  -0.34388  -0.33322  -0.32998  -0.30819
 Alpha  occ. eigenvalues --   -0.29935  -0.29187  -0.28773  -0.27654  -0.15484
 Alpha virt. eigenvalues --   -0.02905  -0.02335   0.00086   0.00145   0.00939
 Alpha virt. eigenvalues --    0.02909   0.03003   0.05103   0.05527   0.08893
 Alpha virt. eigenvalues --    0.09161   0.11649   0.12175   0.12269   0.12912

  Beta  occ. eigenvalues --  -14.85557 -14.85382 -14.73643 -14.71697 -10.62073
  Beta  occ. eigenvalues --  -10.61949 -10.61843 -10.61674 -10.60339 -10.59772
  Beta  occ. eigenvalues --  -10.58942 -10.58657 -10.58648 -10.58631 -10.58606
  Beta  occ. eigenvalues --  -10.58519 -10.58466 -10.58346 -10.58343 -10.58285
  Beta  occ. eigenvalues --  -10.58251 -10.58182 -10.58159 -10.58128 -10.58095
  Beta  occ. eigenvalues --  -10.57983 -10.57914 -10.57908 -10.57793 -10.57767
  Beta  occ. eigenvalues --  -10.57748 -10.57667 -10.57553 -10.56764 -10.56243
  Beta  occ. eigenvalues --  -10.54678  -1.14850  -1.12812  -1.00922  -0.99934
  Beta  occ. eigenvalues --   -0.98319  -0.98051  -0.97945  -0.96580  -0.93860
  Beta  occ. eigenvalues --   -0.91220  -0.90923  -0.87936  -0.87670  -0.87434
  Beta  occ. eigenvalues --   -0.87354  -0.84542  -0.84385  -0.83898  -0.82535
  Beta  occ. eigenvalues --   -0.77101  -0.75997  -0.73271  -0.72949  -0.72351
  Beta  occ. eigenvalues --   -0.71877  -0.69355  -0.68874  -0.68634  -0.68119
  Beta  occ. eigenvalues --   -0.64708  -0.63745  -0.62273  -0.61929  -0.61519
  Beta  occ. eigenvalues --   -0.60650  -0.58428  -0.58295  -0.56003  -0.55596
  Beta  occ. eigenvalues --   -0.55235  -0.54826  -0.53766  -0.53547  -0.53061
  Beta  occ. eigenvalues --   -0.52732  -0.52560  -0.52282  -0.51651  -0.51523
  Beta  occ. eigenvalues --   -0.51483  -0.51067  -0.50653  -0.48735  -0.46615
  Beta  occ. eigenvalues --   -0.46170  -0.45991  -0.45813  -0.45370  -0.45148
  Beta  occ. eigenvalues --   -0.44852  -0.44346  -0.43205  -0.42680  -0.42004
  Beta  occ. eigenvalues --   -0.41383  -0.41174  -0.40909  -0.40139  -0.39815
  Beta  occ. eigenvalues --   -0.39654  -0.38451  -0.37083  -0.36671  -0.36516
  Beta  occ. eigenvalues --   -0.33988  -0.33490  -0.31925  -0.31526  -0.29743
  Beta  occ. eigenvalues --   -0.29245  -0.26694  -0.26131
  Beta virt. eigenvalues --   -0.18141  -0.02496  -0.01895  -0.01395   0.00578
  Beta virt. eigenvalues --    0.00642   0.01296   0.03730   0.03958   0.05545
  Beta virt. eigenvalues --    0.05943   0.09557   0.11268   0.11732   0.12245

 Mulliken charges and spin densities:
               1          2
     1  C    0.163435   0.222551
     2  C    0.182753   0.299908
     3  C   -0.219307  -0.117690
     4  C    0.050859   0.332305
     5  C    0.120415   0.317474
     6  C   -0.188926  -0.111799
     7  H    0.199328   0.003030
     8  H    0.200485   0.002949
     9  C    0.152992  -0.115593
    10  N   -0.521808   0.282408
    11  C    0.196570  -0.049913
    12  N   -0.429091   0.104013
    13  C    0.283738  -0.026174
    14  C    0.269721  -0.027176
    15  C   -0.168399   0.091350
    16  C    0.048373   0.067241
    17  C   -0.155040   0.081260
    18  C    0.060912   0.009521
    19  C   -0.176559  -0.042374
    20  H    0.207209  -0.004362
    21  C   -0.192066  -0.027469
    22  C   -0.168458  -0.018513
    23  H    0.193977  -0.003830
    24  C   -0.199845   0.022299
    25  C   -0.172236   0.103057
    26  H    0.184796   0.001317
    27  H    0.180566   0.000887
    28  C   -0.171143   0.057286
    29  H    0.177743   0.000257
    30  H    0.179114  -0.001391
    31  H    0.178057  -0.005141
    32  H    0.176495  -0.003050
    33  C    0.275928  -0.022958
    34  C    0.281699  -0.019860
    35  C   -0.157550   0.070591
    36  C    0.050417   0.006408
    37  C   -0.165620   0.070200
    38  C    0.058633   0.069077
    39  C   -0.167875  -0.012308
    40  H    0.189458  -0.003221
    41  C   -0.188087   0.022187
    42  C   -0.185477  -0.037543
    43  H    0.203464  -0.003726
    44  C   -0.205523  -0.029312
    45  C   -0.174068   0.044802
    46  H    0.175591   0.000103
    47  H    0.178226  -0.001340
    48  C   -0.173345   0.103478
    49  H    0.182674   0.001191
    50  H    0.175867   0.001137
    51  H    0.174210  -0.002451
    52  H    0.179229  -0.005002
    53  N   -0.671518   0.160335
    54  N   -0.680996   0.143578
 Sum of Mulliken charges =  -0.00000   2.00000

 Dipole moment (field-independent basis, Debye):
    X=            -16.6711    Y=             -0.0244    Z=              0.4477  Tot=             16.6772
 Quadrupole moment (field-independent basis, Debye-Ang):
   XX=           -270.5082   YY=           -177.2203   ZZ=           -202.2556
   XY=             -1.7386   XZ=              4.9800   YZ=             18.2851

 Normal termination of Gaussian 16 at Sat Jul 13 21:24:32 2024.
