 Gaussian 16, Revision C.01,
 Gaussian 16:  ES64L-G16RevC.01  3-Jul-2019

 ----------------------------------------------------------------------
 # 6-31g(d) m062x g09default scf=(xqc,maxcycle=64) force guess=read td
 nosymm
 ----------------------------------------------------------------------

 ----------
 Title Card
 ----------
 Symbolic Z-matrix:
 Charge =  0 Multiplicity = 1

                          Input orientation:
 ---------------------------------------------------------------------
 Center     Atomic      Atomic             Coordinates (Angstroms)
 Number     Number       Type             X           Y           Z
 ---------------------------------------------------------------------
      1          6           0        1.407292    0.498551   -0.480929
      2          6           0        1.424235   -0.501672    0.560152
      3          6           0        2.635390   -0.975012    1.017343
      4          6           0        3.846313   -0.496422    0.499613
      5          6           0        3.819527    0.493669   -0.578570
      6          6           0        2.583625    0.977807   -1.015907
      7          1           0        2.657497   -1.742872    1.785588
      8          1           0        2.553001    1.746194   -1.783109
      9          6           0        4.996865    0.961888   -1.202181
     10          7           0        5.948733    1.369256   -1.749984
     11          6           0        5.067965   -0.975779    1.027422
     12          7           0        6.067631   -1.381399    1.475493
     13          6           0       -0.329407    2.247514   -0.268250
     14          6           0       -0.877966    0.469012   -1.525011
     15          6           0        0.370235    3.165197    0.524647
     16          6           0       -1.687147    2.429320   -0.639277
     17          6           0       -0.835873   -0.728971   -2.233915
     18          6           0       -2.038091    1.275189   -1.459354
     19          6           0       -0.327379    4.283120    0.958028
     20          1           0        1.418207    3.008367    0.759729
     21          6           0       -2.355668    3.563391   -0.204553
     22          6           0       -2.007680   -1.128299   -2.880235
     23          1           0        0.076386   -1.311316   -2.291594
     24          6           0       -3.175959    0.879146   -2.142137
     25          6           0       -1.668054    4.481425    0.596932
     26          1           0        0.177161    5.021210    1.572185
     27          1           0       -3.389422    3.746132   -0.480434
     28          6           0       -3.154877   -0.336200   -2.844648
     29          1           0       -2.013414   -2.064002   -3.428946
     30          1           0       -4.067024    1.498967   -2.144788
     31          1           0       -2.179598    5.376011    0.936178
     32          1           0       -4.043680   -0.657445   -3.377219
     33          6           0       -0.878407   -0.482433    1.596025
     34          6           0       -0.304881   -2.258262    0.341796
     35          6           0       -0.865934    0.699210    2.333660
     36          6           0       -2.046047   -1.266200    1.462930
     37          6           0        0.393329   -3.192527   -0.433197
     38          6           0       -1.682371   -2.408470    0.644221
     39          6           0       -2.061486    1.092798    2.934690
     40          1           0        0.047407    1.271640    2.452727
     41          6           0       -3.218944   -0.869829    2.096542
     42          6           0       -0.321953   -4.277178   -0.917006
     43          1           0        1.456564   -3.074515   -0.624330
     44          6           0       -2.376178   -3.507120    0.146880
     45          6           0       -3.220375    0.318584    2.827744
     46          1           0       -2.085150    2.013502    3.508925
     47          1           0       -4.117388   -1.477022    2.030602
     48          6           0       -1.692032   -4.431436   -0.638182
     49          1           0        0.188280   -5.028841   -1.509895
     50          1           0       -3.431508   -3.641367    0.365315
     51          1           0       -4.128729    0.639242    3.327476
     52          1           0       -2.219112   -5.292189   -1.036057
     53          7           0        0.140134    1.071873   -0.801456
     54          7           0        0.169648   -1.092726    0.908512
 ---------------------------------------------------------------------

 SCF Done:  E(RM062X) =  -1448.68766164     A.U. after   13 cycles

 Excitation energies and oscillator strengths:

 Excited state symmetry could not be determined.
 Excited State   1:      Singlet-?Sym    2.8794 eV  430.59 nm  f=0.0114  <S**2>=0.000
     119 ->120         0.68939
 This state for optimization and/or second-order correction.
 Total Energy, E(TD-HF/TD-DFT) =  -1448.58184470
 Copying the excited state density for this state as the 1-particle RhoCI density.

 Excited state symmetry could not be determined.
 Excited State   2:      Singlet-?Sym    3.1509 eV  393.48 nm  f=0.0259  <S**2>=0.000
     118 ->120         0.68775

 Excited state symmetry could not be determined.
 Excited State   3:      Singlet-?Sym    3.5773 eV  346.58 nm  f=0.0022  <S**2>=0.000
     117 ->120         0.69447

 Alpha  occ. eigenvalues --  -14.82691 -14.82451 -14.79778 -14.79689 -10.65563
 Alpha  occ. eigenvalues --  -10.65418 -10.65299 -10.65214 -10.62053 -10.61965
 Alpha  occ. eigenvalues --  -10.61728 -10.61663 -10.60042 -10.59936 -10.59747
 Alpha  occ. eigenvalues --  -10.59628 -10.56248 -10.56140 -10.56055 -10.56047
 Alpha  occ. eigenvalues --  -10.56046 -10.55975 -10.55970 -10.55960 -10.55865
 Alpha  occ. eigenvalues --  -10.55856 -10.55796 -10.55690 -10.55665 -10.55654
 Alpha  occ. eigenvalues --  -10.55506 -10.55429 -10.55276 -10.55179 -10.54954
 Alpha  occ. eigenvalues --  -10.54897  -1.13870  -1.11498  -1.05022  -1.03185
 Alpha  occ. eigenvalues --   -1.01593  -0.96825  -0.96286  -0.95893  -0.95576
 Alpha  occ. eigenvalues --   -0.92256  -0.91691  -0.88378  -0.87636  -0.85721
 Alpha  occ. eigenvalues --   -0.85327  -0.83753  -0.82658  -0.81960  -0.81828
 Alpha  occ. eigenvalues --   -0.78849  -0.76904  -0.73346  -0.72980  -0.69994
 Alpha  occ. eigenvalues --   -0.69928  -0.69716  -0.69220  -0.66599  -0.66291
 Alpha  occ. eigenvalues --   -0.66252  -0.63719  -0.62249  -0.61351  -0.60155
 Alpha  occ. eigenvalues --   -0.59718  -0.59029  -0.58438  -0.56318  -0.55912
 Alpha  occ. eigenvalues --   -0.53858  -0.53494  -0.53176  -0.53099  -0.52703
 Alpha  occ. eigenvalues --   -0.52500  -0.51406  -0.51280  -0.50675  -0.50596
 Alpha  occ. eigenvalues --   -0.49285  -0.49219  -0.49187  -0.49162  -0.48674
 Alpha  occ. eigenvalues --   -0.48444  -0.46207  -0.46068  -0.45147  -0.44007
 Alpha  occ. eigenvalues --   -0.43763  -0.43431  -0.43245  -0.43060  -0.42598
 Alpha  occ. eigenvalues --   -0.42279  -0.42040  -0.41875  -0.40698  -0.40613
 Alpha  occ. eigenvalues --   -0.40355  -0.40172  -0.39822  -0.39399  -0.36407
 Alpha  occ. eigenvalues --   -0.34539  -0.34392  -0.33837  -0.31858  -0.30539
 Alpha  occ. eigenvalues --   -0.27409  -0.26659  -0.26435  -0.25123
 Alpha virt. eigenvalues --   -0.08135  -0.03895  -0.00505  -0.00333   0.02729
 Alpha virt. eigenvalues --    0.03570   0.04426   0.05334   0.05640   0.05722
 Alpha virt. eigenvalues --    0.07075   0.07442   0.07670   0.10900   0.11003

 Mulliken charges:
               1
     1  C    0.221753
     2  C    0.236032
     3  C   -0.197841
     4  C    0.132612
     5  C    0.130128
     6  C   -0.181666
     7  H    0.234564
     8  H    0.236549
     9  C    0.232658
    10  N   -0.442840
    11  C    0.230578
    12  N   -0.441734
    13  C    0.286132
    14  C    0.277356
    15  C   -0.186330
    16  C    0.042950
    17  C   -0.166459
    18  C    0.047973
    19  C   -0.173986
    20  H    0.160449
    21  C   -0.190053
    22  C   -0.167037
    23  H    0.159883
    24  C   -0.194898
    25  C   -0.186060
    26  H    0.166746
    27  H    0.170307
    28  C   -0.181719
    29  H    0.165773
    30  H    0.166703
    31  H    0.160358
    32  H    0.159916
    33  C    0.281169
    34  C    0.284453
    35  C   -0.167520
    36  C    0.040396
    37  C   -0.187152
    38  C    0.037745
    39  C   -0.167412
    40  H    0.160109
    41  C   -0.186293
    42  C   -0.174802
    43  H    0.161149
    44  C   -0.181561
    45  C   -0.180669
    46  H    0.165894
    47  H    0.166995
    48  C   -0.186489
    49  H    0.166937
    50  H    0.170299
    51  H    0.161333
    52  H    0.161716
    53  N   -0.717040
    54  N   -0.718052
 Sum of Mulliken charges =  -0.00000

 Dipole moment (field-independent basis, Debye):
    X=             -5.5643    Y=             -0.0043    Z=              0.2170  Tot=              5.5686
 Quadrupole moment (field-independent basis, Debye-Ang):
   XX=           -236.8892   YY=           -193.1897   ZZ=           -206.1902
   XY=              0.0524   XZ=              1.7884   YZ=             13.2874

 Normal termination of Gaussian 16 at Sat Jul 13 21:46:44 2024.
