 Gaussian 16, Revision C.01,
 Gaussian 16:  ES64L-G16RevC.01  3-Jul-2019

 ----------------------------------------------------------------------
 # 6-31g(d) m062x g09default scf=(xqc,maxcycle=64) force guess=read nos
 ymm
 ----------------------------------------------------------------------

 ----------
 Title Card
 ----------
 Symbolic Z-matrix:
 Charge =  0 Multiplicity = 3

                          Input orientation:
 ---------------------------------------------------------------------
 Center     Atomic      Atomic             Coordinates (Angstroms)
 Number     Number       Type             X           Y           Z
 ---------------------------------------------------------------------
      1          6           0        1.407292    0.498551   -0.480929
      2          6           0        1.424235   -0.501672    0.560152
      3          6           0        2.635390   -0.975012    1.017343
      4          6           0        3.846313   -0.496422    0.499613
      5          6           0        3.819527    0.493669   -0.578570
      6          6           0        2.583625    0.977807   -1.015907
      7          1           0        2.657497   -1.742872    1.785588
      8          1           0        2.553001    1.746194   -1.783109
      9          6           0        4.996865    0.961888   -1.202181
     10          7           0        5.948733    1.369256   -1.749984
     11          6           0        5.067965   -0.975779    1.027422
     12          7           0        6.067631   -1.381399    1.475493
     13          6           0       -0.329407    2.247514   -0.268250
     14          6           0       -0.877966    0.469012   -1.525011
     15          6           0        0.370235    3.165197    0.524647
     16          6           0       -1.687147    2.429320   -0.639277
     17          6           0       -0.835873   -0.728971   -2.233915
     18          6           0       -2.038091    1.275189   -1.459354
     19          6           0       -0.327379    4.283120    0.958028
     20          1           0        1.418207    3.008367    0.759729
     21          6           0       -2.355668    3.563391   -0.204553
     22          6           0       -2.007680   -1.128299   -2.880235
     23          1           0        0.076386   -1.311316   -2.291594
     24          6           0       -3.175959    0.879146   -2.142137
     25          6           0       -1.668054    4.481425    0.596932
     26          1           0        0.177161    5.021210    1.572185
     27          1           0       -3.389422    3.746132   -0.480434
     28          6           0       -3.154877   -0.336200   -2.844648
     29          1           0       -2.013414   -2.064002   -3.428946
     30          1           0       -4.067024    1.498967   -2.144788
     31          1           0       -2.179598    5.376011    0.936178
     32          1           0       -4.043680   -0.657445   -3.377219
     33          6           0       -0.878407   -0.482433    1.596025
     34          6           0       -0.304881   -2.258262    0.341796
     35          6           0       -0.865934    0.699210    2.333660
     36          6           0       -2.046047   -1.266200    1.462930
     37          6           0        0.393329   -3.192527   -0.433197
     38          6           0       -1.682371   -2.408470    0.644221
     39          6           0       -2.061486    1.092798    2.934690
     40          1           0        0.047407    1.271640    2.452727
     41          6           0       -3.218944   -0.869829    2.096542
     42          6           0       -0.321953   -4.277178   -0.917006
     43          1           0        1.456564   -3.074515   -0.624330
     44          6           0       -2.376178   -3.507120    0.146880
     45          6           0       -3.220375    0.318584    2.827744
     46          1           0       -2.085150    2.013502    3.508925
     47          1           0       -4.117388   -1.477022    2.030602
     48          6           0       -1.692032   -4.431436   -0.638182
     49          1           0        0.188280   -5.028841   -1.509895
     50          1           0       -3.431508   -3.641367    0.365315
     51          1           0       -4.128729    0.639242    3.327476
     52          1           0       -2.219112   -5.292189   -1.036057
     53          7           0        0.140134    1.071873   -0.801456
     54          7           0        0.169648   -1.092726    0.908512
 ---------------------------------------------------------------------

 SCF Done:  E(UM062X) =  -1448.58204460     A.U. after   26 cycles

 Alpha  occ. eigenvalues --  -14.86112 -14.85134 -14.73360 -14.73340 -10.62183
 Alpha  occ. eigenvalues --  -10.61898 -10.61656 -10.61375 -10.60402 -10.60347
 Alpha  occ. eigenvalues --  -10.59134 -10.58856 -10.58764 -10.58737 -10.58725
 Alpha  occ. eigenvalues --  -10.58666 -10.58473 -10.58412 -10.58262 -10.58177
 Alpha  occ. eigenvalues --  -10.58121 -10.58111 -10.58102 -10.58092 -10.58027
 Alpha  occ. eigenvalues --  -10.57951 -10.57806 -10.57755 -10.57742 -10.57736
 Alpha  occ. eigenvalues --  -10.57650 -10.57619 -10.57616 -10.57330 -10.55846
 Alpha  occ. eigenvalues --  -10.55813  -1.15575  -1.13431  -1.00736  -0.98758
 Alpha  occ. eigenvalues --   -0.98573  -0.98227  -0.97864  -0.97590  -0.95733
 Alpha  occ. eigenvalues --   -0.91666  -0.91118  -0.88329  -0.88162  -0.87786
 Alpha  occ. eigenvalues --   -0.87541  -0.84711  -0.84572  -0.83899  -0.83162
 Alpha  occ. eigenvalues --   -0.77702  -0.76227  -0.73866  -0.73265  -0.72485
 Alpha  occ. eigenvalues --   -0.71690  -0.69624  -0.69203  -0.68938  -0.68306
 Alpha  occ. eigenvalues --   -0.65105  -0.64235  -0.62532  -0.61849  -0.61731
 Alpha  occ. eigenvalues --   -0.60705  -0.59501  -0.58756  -0.56108  -0.55742
 Alpha  occ. eigenvalues --   -0.55148  -0.55117  -0.54205  -0.53910  -0.53251
 Alpha  occ. eigenvalues --   -0.53151  -0.53057  -0.52651  -0.51990  -0.51870
 Alpha  occ. eigenvalues --   -0.51373  -0.51325  -0.50834  -0.49314  -0.47525
 Alpha  occ. eigenvalues --   -0.46622  -0.46292  -0.45762  -0.45553  -0.45269
 Alpha  occ. eigenvalues --   -0.45066  -0.44676  -0.43305  -0.42878  -0.42609
 Alpha  occ. eigenvalues --   -0.42370  -0.41942  -0.41759  -0.40742  -0.40675
 Alpha  occ. eigenvalues --   -0.40605  -0.39618  -0.37176  -0.36647  -0.36564
 Alpha  occ. eigenvalues --   -0.36405  -0.34485  -0.33305  -0.32980  -0.30977
 Alpha  occ. eigenvalues --   -0.29904  -0.29092  -0.28676  -0.27737  -0.15579
 Alpha virt. eigenvalues --   -0.03076  -0.02533   0.00025   0.00240   0.01292
 Alpha virt. eigenvalues --    0.02987   0.03375   0.04935   0.05451   0.08866
 Alpha virt. eigenvalues --    0.10018   0.11032   0.11592   0.12171   0.12214

  Beta  occ. eigenvalues --  -14.85812 -14.84907 -14.73152 -14.73134 -10.62196
  Beta  occ. eigenvalues --  -10.61916 -10.61656 -10.61384 -10.60165 -10.60109
  Beta  occ. eigenvalues --  -10.59086 -10.58791 -10.58755 -10.58752 -10.58663
  Beta  occ. eigenvalues --  -10.58657 -10.58412 -10.58369 -10.58288 -10.58130
  Beta  occ. eigenvalues --  -10.58108 -10.58098 -10.58097 -10.58076 -10.58009
  Beta  occ. eigenvalues --  -10.57949 -10.57829 -10.57805 -10.57763 -10.57710
  Beta  occ. eigenvalues --  -10.57626 -10.57464 -10.57363 -10.57308 -10.55922
  Beta  occ. eigenvalues --  -10.55889  -1.14747  -1.12711  -1.00254  -0.98429
  Beta  occ. eigenvalues --   -0.98237  -0.97890  -0.97744  -0.96971  -0.95214
  Beta  occ. eigenvalues --   -0.91364  -0.90848  -0.88108  -0.87688  -0.87399
  Beta  occ. eigenvalues --   -0.87341  -0.84607  -0.84200  -0.83812  -0.82572
  Beta  occ. eigenvalues --   -0.77169  -0.75965  -0.73476  -0.72948  -0.72177
  Beta  occ. eigenvalues --   -0.71451  -0.69299  -0.68964  -0.68690  -0.68184
  Beta  occ. eigenvalues --   -0.64714  -0.63922  -0.62303  -0.61648  -0.61480
  Beta  occ. eigenvalues --   -0.60498  -0.58400  -0.58315  -0.55927  -0.55550
  Beta  occ. eigenvalues --   -0.54981  -0.54909  -0.53763  -0.53646  -0.52971
  Beta  occ. eigenvalues --   -0.52747  -0.52557  -0.52245  -0.51857  -0.51769
  Beta  occ. eigenvalues --   -0.51233  -0.51206  -0.50720  -0.48844  -0.46238
  Beta  occ. eigenvalues --   -0.46089  -0.45820  -0.45510  -0.45289  -0.45015
  Beta  occ. eigenvalues --   -0.44746  -0.44276  -0.43157  -0.42509  -0.42337
  Beta  occ. eigenvalues --   -0.41877  -0.41267  -0.40946  -0.40064  -0.39997
  Beta  occ. eigenvalues --   -0.38833  -0.37577  -0.36670  -0.36292  -0.36163
  Beta  occ. eigenvalues --   -0.36050  -0.33575  -0.31936  -0.31558  -0.29783
  Beta  occ. eigenvalues --   -0.28922  -0.26957  -0.26286
  Beta virt. eigenvalues --   -0.18195  -0.02645  -0.02151  -0.01546   0.00570
  Beta virt. eigenvalues --    0.00727   0.01585   0.03941   0.04176   0.05420
  Beta virt. eigenvalues --    0.05799   0.10336   0.11110   0.11568   0.11677

 Mulliken charges and spin densities:
               1          2
     1  C    0.159790   0.274495
     2  C    0.179458   0.282722
     3  C   -0.205791  -0.123217
     4  C    0.089969   0.336136
     5  C    0.087404   0.324878
     6  C   -0.190914  -0.118898
     7  H    0.200625   0.003275
     8  H    0.200886   0.003009
     9  C    0.191036  -0.078760
    10  N   -0.494117   0.181220
    11  C    0.190302  -0.079512
    12  N   -0.491201   0.180302
    13  C    0.280492  -0.028306
    14  C    0.273280  -0.028629
    15  C   -0.166028   0.096254
    16  C    0.052790   0.068999
    17  C   -0.154051   0.088170
    18  C    0.052066   0.013940
    19  C   -0.178037  -0.044083
    20  H    0.207988  -0.004743
    21  C   -0.189986  -0.026497
    22  C   -0.167727  -0.020646
    23  H    0.195011  -0.004001
    24  C   -0.189941   0.020992
    25  C   -0.170280   0.104443
    26  H    0.185436   0.001378
    27  H    0.181178   0.000878
    28  C   -0.171247   0.061105
    29  H    0.180114   0.000349
    30  H    0.179807  -0.001359
    31  H    0.179027  -0.005242
    32  H    0.176470  -0.003290
    33  C    0.275560  -0.018896
    34  C    0.279112  -0.015045
    35  C   -0.165251   0.059688
    36  C    0.040034   0.003140
    37  C   -0.175259   0.069564
    38  C    0.042481   0.059854
    39  C   -0.168659  -0.008124
    40  H    0.186707  -0.002834
    41  C   -0.183243   0.021873
    42  C   -0.179040  -0.033302
    43  H    0.202839  -0.003486
    44  C   -0.183899  -0.024926
    45  C   -0.175550   0.034796
    46  H    0.174760  -0.000021
    47  H    0.175940  -0.001261
    48  C   -0.175678   0.080245
    49  H    0.181668   0.001070
    50  H    0.176905   0.000983
    51  H    0.172243  -0.001939
    52  H    0.175209  -0.004001
    53  N   -0.669909   0.177615
    54  N   -0.680779   0.129647
 Sum of Mulliken charges =  -0.00000   2.00000

 Dipole moment (field-independent basis, Debye):
    X=            -16.3965    Y=              0.5806    Z=             -0.0478  Tot=             16.4069
 Quadrupole moment (field-independent basis, Debye-Ang):
   XX=           -270.0387   YY=           -177.9645   ZZ=           -202.2758
   XY=             -0.7243   XZ=              3.6195   YZ=             18.1970

 Normal termination of Gaussian 16 at Sat Jul 13 21:37:01 2024.
