 Gaussian 16, Revision C.01,
 Gaussian 16:  ES64L-G16RevC.01  3-Jul-2019

 ----------------------------------------------------------------------
 # 6-31g(d) m062x g09default scf=(xqc,maxcycle=64) force guess=read td
 nosymm
 ----------------------------------------------------------------------

 ----------
 Title Card
 ----------
 Symbolic Z-matrix:
 Charge =  0 Multiplicity = 1

                          Input orientation:
 ---------------------------------------------------------------------
 Center     Atomic      Atomic             Coordinates (Angstroms)
 Number     Number       Type             X           Y           Z
 ---------------------------------------------------------------------
      1          6           0        1.407285    0.498637   -0.481029
      2          6           0        1.424174   -0.501814    0.560127
      3          6           0        2.635370   -0.975227    1.017537
      4          6           0        3.846293   -0.496469    0.499637
      5          6           0        3.819067    0.493699   -0.578524
      6          6           0        2.583600    0.977935   -1.015907
      7          1           0        2.657354   -1.742873    1.785641
      8          1           0        2.553082    1.745951   -1.783301
      9          6           0        4.998767    0.962760   -1.203208
     10          7           0        5.947130    1.368554   -1.748769
     11          6           0        5.069384   -0.976383    1.028086
     12          7           0        6.066213   -1.380948    1.474804
     13          6           0       -0.329286    2.247866   -0.268733
     14          6           0       -0.877984    0.468984   -1.525007
     15          6           0        0.370261    3.165334    0.524542
     16          6           0       -1.687032    2.429591   -0.639559
     17          6           0       -0.835831   -0.728919   -2.234094
     18          6           0       -2.038026    1.275284   -1.459407
     19          6           0       -0.327505    4.283186    0.957867
     20          1           0        1.417983    3.008067    0.760165
     21          6           0       -2.355566    3.563437   -0.204555
     22          6           0       -2.007626   -1.128207   -2.880342
     23          1           0        0.076530   -1.311136   -2.291759
     24          6           0       -3.176035    0.878910   -2.142109
     25          6           0       -1.668112    4.481356    0.596839
     26          1           0        0.177082    5.021331    1.572141
     27          1           0       -3.389533    3.745906   -0.480318
     28          6           0       -3.154760   -0.336020   -2.844451
     29          1           0       -2.013531   -2.064036   -3.428978
     30          1           0       -4.067352    1.498732   -2.144344
     31          1           0       -2.179737    5.375963    0.936306
     32          1           0       -4.043739   -0.657461   -3.377195
     33          6           0       -0.878295   -0.482388    1.596200
     34          6           0       -0.304946   -2.258414    0.342309
     35          6           0       -0.865794    0.699111    2.333756
     36          6           0       -2.045955   -1.266242    1.462885
     37          6           0        0.393599   -3.192590   -0.433144
     38          6           0       -1.682230   -2.408568    0.644382
     39          6           0       -2.061408    1.092927    2.934713
     40          1           0        0.047587    1.271547    2.452836
     41          6           0       -3.219001   -0.869644    2.096381
     42          6           0       -0.322263   -4.277312   -0.917010
     43          1           0        1.456371   -3.074164   -0.624593
     44          6           0       -2.376196   -3.507235    0.146825
     45          6           0       -3.220343    0.318707    2.827582
     46          1           0       -2.084996    2.013521    3.508948
     47          1           0       -4.117351   -1.476893    2.030376
     48          6           0       -1.691853   -4.431359   -0.638119
     49          1           0        0.188245   -5.028773   -1.510035
     50          1           0       -3.431461   -3.641358    0.365194
     51          1           0       -4.128666    0.639316    3.327426
     52          1           0       -2.219211   -5.292364   -1.035984
     53          7           0        0.140142    1.071898   -0.801656
     54          7           0        0.169792   -1.093001    0.908820
 ---------------------------------------------------------------------

 SCF Done:  E(RM062X) =  -1448.68821135     A.U. after    9 cycles

 Excitation energies and oscillator strengths:

 Excited state symmetry could not be determined.
 Excited State   1:      Singlet-?Sym    2.8892 eV  429.13 nm  f=0.0115  <S**2>=0.000
     119 ->120         0.68929
 This state for optimization and/or second-order correction.
 Total Energy, E(TD-HF/TD-DFT) =  -1448.58203449
 Copying the excited state density for this state as the 1-particle RhoCI density.

 Excited state symmetry could not be determined.
 Excited State   2:      Singlet-?Sym    3.1598 eV  392.38 nm  f=0.0259  <S**2>=0.000
     118 ->120         0.68760

 Excited state symmetry could not be determined.
 Excited State   3:      Singlet-?Sym    3.5872 eV  345.63 nm  f=0.0022  <S**2>=0.000
     117 ->120         0.69442

 Alpha  occ. eigenvalues --  -14.82686 -14.82449 -14.79664 -14.79603 -10.65559
 Alpha  occ. eigenvalues --  -10.65415 -10.65310 -10.65232 -10.62047 -10.61955
 Alpha  occ. eigenvalues --  -10.61641 -10.61596 -10.60039 -10.59934 -10.59744
 Alpha  occ. eigenvalues --  -10.59625 -10.56248 -10.56139 -10.56054 -10.56045
 Alpha  occ. eigenvalues --  -10.56044 -10.55973 -10.55968 -10.55959 -10.55864
 Alpha  occ. eigenvalues --  -10.55855 -10.55795 -10.55689 -10.55663 -10.55652
 Alpha  occ. eigenvalues --  -10.55506 -10.55428 -10.55273 -10.55177 -10.54953
 Alpha  occ. eigenvalues --  -10.54894  -1.13865  -1.11496  -1.05076  -1.03328
 Alpha  occ. eigenvalues --   -1.01655  -0.96826  -0.96286  -0.95892  -0.95575
 Alpha  occ. eigenvalues --   -0.92249  -0.91679  -0.88373  -0.87628  -0.85721
 Alpha  occ. eigenvalues --   -0.85327  -0.83742  -0.82648  -0.81958  -0.81825
 Alpha  occ. eigenvalues --   -0.78816  -0.76889  -0.73334  -0.72978  -0.69989
 Alpha  occ. eigenvalues --   -0.69915  -0.69711  -0.69207  -0.66600  -0.66288
 Alpha  occ. eigenvalues --   -0.66236  -0.63707  -0.62236  -0.61341  -0.60152
 Alpha  occ. eigenvalues --   -0.59714  -0.59022  -0.58432  -0.56316  -0.55903
 Alpha  occ. eigenvalues --   -0.53853  -0.53489  -0.53175  -0.53098  -0.52699
 Alpha  occ. eigenvalues --   -0.52495  -0.51406  -0.51277  -0.50675  -0.50594
 Alpha  occ. eigenvalues --   -0.49280  -0.49218  -0.49186  -0.49161  -0.48672
 Alpha  occ. eigenvalues --   -0.48443  -0.46187  -0.46048  -0.45206  -0.44029
 Alpha  occ. eigenvalues --   -0.43761  -0.43425  -0.43242  -0.43059  -0.42622
 Alpha  occ. eigenvalues --   -0.42280  -0.42121  -0.41970  -0.40696  -0.40615
 Alpha  occ. eigenvalues --   -0.40356  -0.40175  -0.39824  -0.39403  -0.36428
 Alpha  occ. eigenvalues --   -0.34545  -0.34389  -0.33857  -0.31857  -0.30540
 Alpha  occ. eigenvalues --   -0.27407  -0.26656  -0.26434  -0.25125
 Alpha virt. eigenvalues --   -0.08086  -0.03872  -0.00506  -0.00333   0.02732
 Alpha virt. eigenvalues --    0.03575   0.04528   0.05351   0.05678   0.05835
 Alpha virt. eigenvalues --    0.07124   0.07442   0.07672   0.10957   0.11038

 Mulliken charges:
               1
     1  C    0.221667
     2  C    0.235899
     3  C   -0.197818
     4  C    0.130674
     5  C    0.127576
     6  C   -0.181823
     7  H    0.234487
     8  H    0.236507
     9  C    0.233727
    10  N   -0.440926
    11  C    0.231192
    12  N   -0.440288
    13  C    0.286050
    14  C    0.277376
    15  C   -0.186258
    16  C    0.042997
    17  C   -0.166385
    18  C    0.047750
    19  C   -0.174024
    20  H    0.160452
    21  C   -0.190026
    22  C   -0.167061
    23  H    0.159866
    24  C   -0.194697
    25  C   -0.186034
    26  H    0.166727
    27  H    0.170294
    28  C   -0.181738
    29  H    0.165783
    30  H    0.166695
    31  H    0.160355
    32  H    0.159872
    33  C    0.281240
    34  C    0.284303
    35  C   -0.167576
    36  C    0.040165
    37  C   -0.187162
    38  C    0.037762
    39  C   -0.167414
    40  H    0.160089
    41  C   -0.186226
    42  C   -0.174743
    43  H    0.161163
    44  C   -0.181418
    45  C   -0.180677
    46  H    0.165902
    47  H    0.166979
    48  C   -0.186438
    49  H    0.166914
    50  H    0.170319
    51  H    0.161319
    52  H    0.161684
    53  N   -0.717058
    54  N   -0.717997
 Sum of Mulliken charges =  -0.00000

 Dipole moment (field-independent basis, Debye):
    X=             -5.5584    Y=             -0.0035    Z=              0.2170  Tot=              5.5626
 Quadrupole moment (field-independent basis, Debye-Ang):
   XX=           -236.8569   YY=           -193.1835   ZZ=           -206.1737
   XY=              0.0550   XZ=              1.7831   YZ=             13.2889

 Normal termination of Gaussian 16 at Sat Jul 13 21:58:26 2024.
