 Gaussian 16, Revision C.01,
 Gaussian 16:  ES64L-G16RevC.01  3-Jul-2019

 ----------------------------------------------------------------------
 # 6-31g(d) m062x g09default scf=(xqc,maxcycle=64) force guess=read nos
 ymm
 ----------------------------------------------------------------------

 ----------
 Title Card
 ----------
 Symbolic Z-matrix:
 Charge =  0 Multiplicity = 3

                          Input orientation:
 ---------------------------------------------------------------------
 Center     Atomic      Atomic             Coordinates (Angstroms)
 Number     Number       Type             X           Y           Z
 ---------------------------------------------------------------------
      1          6           0        1.407285    0.498637   -0.481029
      2          6           0        1.424174   -0.501814    0.560127
      3          6           0        2.635370   -0.975227    1.017537
      4          6           0        3.846293   -0.496469    0.499637
      5          6           0        3.819067    0.493699   -0.578524
      6          6           0        2.583600    0.977935   -1.015907
      7          1           0        2.657354   -1.742873    1.785641
      8          1           0        2.553082    1.745951   -1.783301
      9          6           0        4.998767    0.962760   -1.203208
     10          7           0        5.947130    1.368554   -1.748769
     11          6           0        5.069384   -0.976383    1.028086
     12          7           0        6.066213   -1.380948    1.474804
     13          6           0       -0.329286    2.247866   -0.268733
     14          6           0       -0.877984    0.468984   -1.525007
     15          6           0        0.370261    3.165334    0.524542
     16          6           0       -1.687032    2.429591   -0.639559
     17          6           0       -0.835831   -0.728919   -2.234094
     18          6           0       -2.038026    1.275284   -1.459407
     19          6           0       -0.327505    4.283186    0.957867
     20          1           0        1.417983    3.008067    0.760165
     21          6           0       -2.355566    3.563437   -0.204555
     22          6           0       -2.007626   -1.128207   -2.880342
     23          1           0        0.076530   -1.311136   -2.291759
     24          6           0       -3.176035    0.878910   -2.142109
     25          6           0       -1.668112    4.481356    0.596839
     26          1           0        0.177082    5.021331    1.572141
     27          1           0       -3.389533    3.745906   -0.480318
     28          6           0       -3.154760   -0.336020   -2.844451
     29          1           0       -2.013531   -2.064036   -3.428978
     30          1           0       -4.067352    1.498732   -2.144344
     31          1           0       -2.179737    5.375963    0.936306
     32          1           0       -4.043739   -0.657461   -3.377195
     33          6           0       -0.878295   -0.482388    1.596200
     34          6           0       -0.304946   -2.258414    0.342309
     35          6           0       -0.865794    0.699111    2.333756
     36          6           0       -2.045955   -1.266242    1.462885
     37          6           0        0.393599   -3.192590   -0.433144
     38          6           0       -1.682230   -2.408568    0.644382
     39          6           0       -2.061408    1.092927    2.934713
     40          1           0        0.047587    1.271547    2.452836
     41          6           0       -3.219001   -0.869644    2.096381
     42          6           0       -0.322263   -4.277312   -0.917010
     43          1           0        1.456371   -3.074164   -0.624593
     44          6           0       -2.376196   -3.507235    0.146825
     45          6           0       -3.220343    0.318707    2.827582
     46          1           0       -2.084996    2.013521    3.508948
     47          1           0       -4.117351   -1.476893    2.030376
     48          6           0       -1.691853   -4.431359   -0.638119
     49          1           0        0.188245   -5.028773   -1.510035
     50          1           0       -3.431461   -3.641358    0.365194
     51          1           0       -4.128666    0.639316    3.327426
     52          1           0       -2.219211   -5.292364   -1.035984
     53          7           0        0.140142    1.071898   -0.801656
     54          7           0        0.169792   -1.093001    0.908820
 ---------------------------------------------------------------------

 SCF Done:  E(UM062X) =  -1448.58221474     A.U. after   21 cycles

 Alpha  occ. eigenvalues --  -14.86116 -14.85121 -14.73264 -14.73254 -10.62181
 Alpha  occ. eigenvalues --  -10.61896 -10.61647 -10.61365 -10.60368 -10.60309
 Alpha  occ. eigenvalues --  -10.59135 -10.58859 -10.58766 -10.58738 -10.58727
 Alpha  occ. eigenvalues --  -10.58668 -10.58475 -10.58405 -10.58263 -10.58174
 Alpha  occ. eigenvalues --  -10.58114 -10.58106 -10.58104 -10.58088 -10.58028
 Alpha  occ. eigenvalues --  -10.57945 -10.57801 -10.57739 -10.57730 -10.57723
 Alpha  occ. eigenvalues --  -10.57630 -10.57615 -10.57611 -10.57325 -10.55774
 Alpha  occ. eigenvalues --  -10.55745  -1.15568  -1.13424  -1.00729  -0.98817
 Alpha  occ. eigenvalues --   -0.98578  -0.98233  -0.97858  -0.97728  -0.95769
 Alpha  occ. eigenvalues --   -0.91666  -0.91112  -0.88331  -0.88150  -0.87770
 Alpha  occ. eigenvalues --   -0.87535  -0.84707  -0.84567  -0.83893  -0.83144
 Alpha  occ. eigenvalues --   -0.77682  -0.76208  -0.73847  -0.73248  -0.72481
 Alpha  occ. eigenvalues --   -0.71679  -0.69599  -0.69196  -0.68934  -0.68303
 Alpha  occ. eigenvalues --   -0.65085  -0.64217  -0.62530  -0.61840  -0.61720
 Alpha  occ. eigenvalues --   -0.60696  -0.59483  -0.58726  -0.56102  -0.55741
 Alpha  occ. eigenvalues --   -0.55143  -0.55107  -0.54199  -0.53904  -0.53242
 Alpha  occ. eigenvalues --   -0.53145  -0.53047  -0.52642  -0.51994  -0.51862
 Alpha  occ. eigenvalues --   -0.51371  -0.51320  -0.50827  -0.49293  -0.47505
 Alpha  occ. eigenvalues --   -0.46610  -0.46292  -0.45759  -0.45551  -0.45253
 Alpha  occ. eigenvalues --   -0.45060  -0.44674  -0.43304  -0.42878  -0.42608
 Alpha  occ. eigenvalues --   -0.42371  -0.41932  -0.41753  -0.40730  -0.40660
 Alpha  occ. eigenvalues --   -0.40638  -0.39638  -0.37178  -0.36731  -0.36569
 Alpha  occ. eigenvalues --   -0.36501  -0.34487  -0.33312  -0.32980  -0.30998
 Alpha  occ. eigenvalues --   -0.29903  -0.29091  -0.28670  -0.27736  -0.15535
 Alpha virt. eigenvalues --   -0.03077  -0.02532   0.00057   0.00249   0.01301
 Alpha virt. eigenvalues --    0.02990   0.03385   0.04934   0.05455   0.08931
 Alpha virt. eigenvalues --    0.10137   0.11164   0.11592   0.12172   0.12214

  Beta  occ. eigenvalues --  -14.85814 -14.84894 -14.73063 -14.73052 -10.62193
  Beta  occ. eigenvalues --  -10.61913 -10.61647 -10.61375 -10.60130 -10.60070
  Beta  occ. eigenvalues --  -10.59087 -10.58794 -10.58756 -10.58753 -10.58664
  Beta  occ. eigenvalues --  -10.58659 -10.58414 -10.58362 -10.58289 -10.58128
  Beta  occ. eigenvalues --  -10.58104 -10.58099 -10.58093 -10.58070 -10.58010
  Beta  occ. eigenvalues --  -10.57943 -10.57808 -10.57800 -10.57741 -10.57703
  Beta  occ. eigenvalues --  -10.57621 -10.57450 -10.57360 -10.57303 -10.55847
  Beta  occ. eigenvalues --  -10.55820  -1.14736  -1.12703  -1.00245  -0.98433
  Beta  occ. eigenvalues --   -0.98295  -0.97902  -0.97737  -0.97126  -0.95255
  Beta  occ. eigenvalues --   -0.91363  -0.90842  -0.88109  -0.87676  -0.87384
  Beta  occ. eigenvalues --   -0.87332  -0.84606  -0.84190  -0.83806  -0.82552
  Beta  occ. eigenvalues --   -0.77152  -0.75948  -0.73455  -0.72929  -0.72171
  Beta  occ. eigenvalues --   -0.71440  -0.69272  -0.68961  -0.68680  -0.68180
  Beta  occ. eigenvalues --   -0.64692  -0.63902  -0.62301  -0.61639  -0.61469
  Beta  occ. eigenvalues --   -0.60488  -0.58376  -0.58287  -0.55920  -0.55549
  Beta  occ. eigenvalues --   -0.54975  -0.54899  -0.53757  -0.53642  -0.52963
  Beta  occ. eigenvalues --   -0.52740  -0.52543  -0.52232  -0.51859  -0.51760
  Beta  occ. eigenvalues --   -0.51230  -0.51201  -0.50714  -0.48821  -0.46225
  Beta  occ. eigenvalues --   -0.46077  -0.45817  -0.45503  -0.45283  -0.45000
  Beta  occ. eigenvalues --   -0.44739  -0.44273  -0.43154  -0.42507  -0.42339
  Beta  occ. eigenvalues --   -0.41877  -0.41260  -0.40940  -0.40060  -0.39990
  Beta  occ. eigenvalues --   -0.38898  -0.37617  -0.36671  -0.36389  -0.36182
  Beta  occ. eigenvalues --   -0.36136  -0.33573  -0.31935  -0.31570  -0.29783
  Beta  occ. eigenvalues --   -0.28918  -0.26986  -0.26278
  Beta virt. eigenvalues --   -0.18187  -0.02643  -0.02149  -0.01497   0.00597
  Beta virt. eigenvalues --    0.00736   0.01594   0.03949   0.04186   0.05421
  Beta virt. eigenvalues --    0.05803   0.10450   0.11160   0.11645   0.11727

 Mulliken charges and spin densities:
               1          2
     1  C    0.159253   0.276570
     2  C    0.179152   0.283307
     3  C   -0.205782  -0.123155
     4  C    0.087775   0.336750
     5  C    0.084520   0.324465
     6  C   -0.191018  -0.118751
     7  H    0.200422   0.003272
     8  H    0.200699   0.002999
     9  C    0.192239  -0.076319
    10  N   -0.491662   0.175528
    11  C    0.190785  -0.077928
    12  N   -0.489490   0.176837
    13  C    0.280388  -0.028412
    14  C    0.273277  -0.028713
    15  C   -0.165885   0.096608
    16  C    0.052880   0.069186
    17  C   -0.153899   0.088503
    18  C    0.051876   0.014141
    19  C   -0.178094  -0.044220
    20  H    0.208088  -0.004767
    21  C   -0.189960  -0.026522
    22  C   -0.167750  -0.020767
    23  H    0.195082  -0.004014
    24  C   -0.189744   0.020946
    25  C   -0.170205   0.104720
    26  H    0.185443   0.001382
    27  H    0.181184   0.000880
    28  C   -0.171230   0.061383
    29  H    0.180151   0.000353
    30  H    0.179821  -0.001358
    31  H    0.179059  -0.005256
    32  H    0.176466  -0.003304
    33  C    0.275599  -0.018875
    34  C    0.278950  -0.015005
    35  C   -0.165330   0.059671
    36  C    0.039779   0.003110
    37  C   -0.175225   0.069774
    38  C    0.042485   0.059872
    39  C   -0.168672  -0.008099
    40  H    0.186694  -0.002837
    41  C   -0.183189   0.021894
    42  C   -0.179017  -0.033340
    43  H    0.202889  -0.003499
    44  C   -0.183773  -0.024943
    45  C   -0.175576   0.034745
    46  H    0.174735  -0.000022
    47  H    0.175898  -0.001261
    48  C   -0.175637   0.080220
    49  H    0.181631   0.001071
    50  H    0.176902   0.000985
    51  H    0.172200  -0.001937
    52  H    0.175160  -0.004001
    53  N   -0.669694   0.178376
    54  N   -0.680649   0.129758
 Sum of Mulliken charges =  -0.00000   2.00000

 Dipole moment (field-independent basis, Debye):
    X=            -16.3851    Y=              0.5903    Z=             -0.0565  Tot=             16.3958
 Quadrupole moment (field-independent basis, Debye-Ang):
   XX=           -269.9156   YY=           -177.9384   ZZ=           -202.2468
   XY=             -0.7113   XZ=              3.6020   YZ=             18.1919

 Normal termination of Gaussian 16 at Sat Jul 13 21:48:59 2024.
