 Gaussian 16, Revision C.01,
 Gaussian 16:  ES64L-G16RevC.01  3-Jul-2019

 ----------------------------------------------------------------------
 # 6-31g(d) m062x g09default scf=(xqc,maxcycle=64) force guess=read td
 nosymm
 ----------------------------------------------------------------------

 ----------
 Title Card
 ----------
 Symbolic Z-matrix:
 Charge =  0 Multiplicity = 1

                          Input orientation:
 ---------------------------------------------------------------------
 Center     Atomic      Atomic             Coordinates (Angstroms)
 Number     Number       Type             X           Y           Z
 ---------------------------------------------------------------------
      1          6           0        1.407416    0.497607   -0.480194
      2          6           0        1.424759   -0.501663    0.559079
      3          6           0        2.635121   -0.976074    1.018046
      4          6           0        3.846979   -0.496354    0.499384
      5          6           0        3.817995    0.493584   -0.577999
      6          6           0        2.584151    0.978674   -1.015943
      7          1           0        2.656567   -1.743281    1.786366
      8          1           0        2.553451    1.744904   -1.784749
      9          6           0        4.998488    0.963100   -1.202807
     10          7           0        5.947548    1.368596   -1.747196
     11          6           0        5.068538   -0.976262    1.027925
     12          7           0        6.066061   -1.381594    1.474372
     13          6           0       -0.328122    2.248290   -0.272287
     14          6           0       -0.877659    0.469349   -1.524603
     15          6           0        0.370655    3.166592    0.524232
     16          6           0       -1.686643    2.431625   -0.641147
     17          6           0       -0.835276   -0.729018   -2.235166
     18          6           0       -2.038071    1.275424   -1.460013
     19          6           0       -0.327964    4.283760    0.957094
     20          1           0        1.416557    3.006319    0.762678
     21          6           0       -2.355485    3.562983   -0.205232
     22          6           0       -2.007657   -1.127712   -2.881054
     23          1           0        0.077252   -1.309971   -2.292767
     24          6           0       -3.176282    0.878843   -2.141076
     25          6           0       -1.668282    4.481774    0.596745
     26          1           0        0.176439    5.021858    1.571763
     27          1           0       -3.390022    3.744560   -0.479505
     28          6           0       -3.154521   -0.336158   -2.844109
     29          1           0       -2.014163   -2.064045   -3.429152
     30          1           0       -4.068997    1.497069   -2.141748
     31          1           0       -2.180513    5.375498    0.937006
     32          1           0       -4.043673   -0.657398   -3.376735
     33          6           0       -0.877352   -0.482634    1.596734
     34          6           0       -0.304144   -2.258933    0.345185
     35          6           0       -0.864946    0.698980    2.334504
     36          6           0       -2.045453   -1.266218    1.462780
     37          6           0        0.393976   -3.193932   -0.433150
     38          6           0       -1.682304   -2.409928    0.645228
     39          6           0       -2.061035    1.093361    2.934728
     40          1           0        0.048610    1.270915    2.453504
     41          6           0       -3.219007   -0.868761    2.095280
     42          6           0       -0.322684   -4.276871   -0.916594
     43          1           0        1.455300   -3.072123   -0.626132
     44          6           0       -2.375730   -3.506847    0.147095
     45          6           0       -3.220047    0.319715    2.826763
     46          1           0       -2.084084    2.013763    3.509162
     47          1           0       -4.117230   -1.476089    2.029011
     48          6           0       -1.691435   -4.431979   -0.638182
     49          1           0        0.187928   -5.028422   -1.510945
     50          1           0       -3.431402   -3.641331    0.364463
     51          1           0       -4.128246    0.639801    3.327034
     52          1           0       -2.219478   -5.292884   -1.035337
     53          7           0        0.138673    1.073408   -0.802849
     54          7           0        0.169133   -1.095156    0.910704
 ---------------------------------------------------------------------

 SCF Done:  E(RM062X) =  -1448.68807458     A.U. after   10 cycles

 Excitation energies and oscillator strengths:

 Excited state symmetry could not be determined.
 Excited State   1:      Singlet-?Sym    2.8834 eV  430.00 nm  f=0.0114  <S**2>=0.000
     119 ->120         0.68984
 This state for optimization and/or second-order correction.
 Total Energy, E(TD-HF/TD-DFT) =  -1448.58211327
 Copying the excited state density for this state as the 1-particle RhoCI density.

 Excited state symmetry could not be determined.
 Excited State   2:      Singlet-?Sym    3.1602 eV  392.32 nm  f=0.0258  <S**2>=0.000
     118 ->120         0.68823

 Excited state symmetry could not be determined.
 Excited State   3:      Singlet-?Sym    3.5895 eV  345.41 nm  f=0.0022  <S**2>=0.000
     117 ->120         0.69485

 Alpha  occ. eigenvalues --  -14.82713 -14.82491 -14.79675 -14.79642 -10.65600
 Alpha  occ. eigenvalues --  -10.65476 -10.65330 -10.65255 -10.62096 -10.61996
 Alpha  occ. eigenvalues --  -10.61655 -10.61625 -10.60038 -10.59933 -10.59735
 Alpha  occ. eigenvalues --  -10.59621 -10.56238 -10.56137 -10.56039 -10.56027
 Alpha  occ. eigenvalues --  -10.56026 -10.55955 -10.55949 -10.55944 -10.55858
 Alpha  occ. eigenvalues --  -10.55845 -10.55800 -10.55684 -10.55661 -10.55655
 Alpha  occ. eigenvalues --  -10.55503 -10.55422 -10.55259 -10.55162 -10.54948
 Alpha  occ. eigenvalues --  -10.54884  -1.13905  -1.11560  -1.05099  -1.03331
 Alpha  occ. eigenvalues --   -1.01678  -0.96815  -0.96266  -0.95878  -0.95562
 Alpha  occ. eigenvalues --   -0.92273  -0.91713  -0.88365  -0.87629  -0.85712
 Alpha  occ. eigenvalues --   -0.85320  -0.83717  -0.82630  -0.81968  -0.81830
 Alpha  occ. eigenvalues --   -0.78830  -0.76926  -0.73331  -0.72996  -0.70025
 Alpha  occ. eigenvalues --   -0.69918  -0.69749  -0.69171  -0.66590  -0.66284
 Alpha  occ. eigenvalues --   -0.66236  -0.63703  -0.62251  -0.61346  -0.60156
 Alpha  occ. eigenvalues --   -0.59724  -0.59020  -0.58439  -0.56342  -0.55917
 Alpha  occ. eigenvalues --   -0.53867  -0.53491  -0.53178  -0.53099  -0.52696
 Alpha  occ. eigenvalues --   -0.52493  -0.51410  -0.51284  -0.50676  -0.50600
 Alpha  occ. eigenvalues --   -0.49297  -0.49221  -0.49187  -0.49153  -0.48655
 Alpha  occ. eigenvalues --   -0.48458  -0.46203  -0.46063  -0.45218  -0.44035
 Alpha  occ. eigenvalues --   -0.43748  -0.43439  -0.43255  -0.43039  -0.42624
 Alpha  occ. eigenvalues --   -0.42268  -0.42122  -0.41989  -0.40705  -0.40622
 Alpha  occ. eigenvalues --   -0.40379  -0.40166  -0.39793  -0.39393  -0.36443
 Alpha  occ. eigenvalues --   -0.34554  -0.34388  -0.33891  -0.31837  -0.30522
 Alpha  occ. eigenvalues --   -0.27412  -0.26665  -0.26420  -0.25097
 Alpha virt. eigenvalues --   -0.08090  -0.03925  -0.00481  -0.00305   0.02713
 Alpha virt. eigenvalues --    0.03553   0.04514   0.05369   0.05676   0.05816
 Alpha virt. eigenvalues --    0.07107   0.07457   0.07687   0.10920   0.11005

 Mulliken charges:
               1
     1  C    0.220818
     2  C    0.235500
     3  C   -0.197190
     4  C    0.131229
     5  C    0.127253
     6  C   -0.181273
     7  H    0.234892
     8  H    0.237054
     9  C    0.234138
    10  N   -0.440804
    11  C    0.230752
    12  N   -0.440507
    13  C    0.286112
    14  C    0.277070
    15  C   -0.185584
    16  C    0.043297
    17  C   -0.165807
    18  C    0.047559
    19  C   -0.173799
    20  H    0.159974
    21  C   -0.190624
    22  C   -0.167011
    23  H    0.159610
    24  C   -0.195104
    25  C   -0.186301
    26  H    0.166612
    27  H    0.170256
    28  C   -0.181756
    29  H    0.165780
    30  H    0.166744
    31  H    0.160315
    32  H    0.159776
    33  C    0.281497
    34  C    0.283725
    35  C   -0.167318
    36  C    0.039165
    37  C   -0.185988
    38  C    0.038840
    39  C   -0.167380
    40  H    0.159859
    41  C   -0.186255
    42  C   -0.174803
    43  H    0.160730
    44  C   -0.182341
    45  C   -0.180681
    46  H    0.165923
    47  H    0.166943
    48  C   -0.186392
    49  H    0.166687
    50  H    0.170228
    51  H    0.161282
    52  H    0.161722
    53  N   -0.716646
    54  N   -0.717779
 Sum of Mulliken charges =  -0.00000

 Dipole moment (field-independent basis, Debye):
    X=             -5.5261    Y=             -0.0042    Z=              0.2179  Tot=              5.5304
 Quadrupole moment (field-independent basis, Debye-Ang):
   XX=           -236.7910   YY=           -193.3241   ZZ=           -206.1691
   XY=              0.0603   XZ=              1.7724   YZ=             13.2607

 Normal termination of Gaussian 16 at Sat Jul 13 22:10:04 2024.
