 Gaussian 16, Revision C.01,
 Gaussian 16:  ES64L-G16RevC.01  3-Jul-2019

 ----------------------------------------------------------------------
 # 6-31g(d) m062x g09default scf=(xqc,maxcycle=64) force guess=read nos
 ymm
 ----------------------------------------------------------------------

 ----------
 Title Card
 ----------
 Symbolic Z-matrix:
 Charge =  0 Multiplicity = 3

                          Input orientation:
 ---------------------------------------------------------------------
 Center     Atomic      Atomic             Coordinates (Angstroms)
 Number     Number       Type             X           Y           Z
 ---------------------------------------------------------------------
      1          6           0        1.407416    0.497607   -0.480194
      2          6           0        1.424759   -0.501663    0.559079
      3          6           0        2.635121   -0.976074    1.018046
      4          6           0        3.846979   -0.496354    0.499384
      5          6           0        3.817995    0.493584   -0.577999
      6          6           0        2.584151    0.978674   -1.015943
      7          1           0        2.656567   -1.743281    1.786366
      8          1           0        2.553451    1.744904   -1.784749
      9          6           0        4.998488    0.963100   -1.202807
     10          7           0        5.947548    1.368596   -1.747196
     11          6           0        5.068538   -0.976262    1.027925
     12          7           0        6.066061   -1.381594    1.474372
     13          6           0       -0.328122    2.248290   -0.272287
     14          6           0       -0.877659    0.469349   -1.524603
     15          6           0        0.370655    3.166592    0.524232
     16          6           0       -1.686643    2.431625   -0.641147
     17          6           0       -0.835276   -0.729018   -2.235166
     18          6           0       -2.038071    1.275424   -1.460013
     19          6           0       -0.327964    4.283760    0.957094
     20          1           0        1.416557    3.006319    0.762678
     21          6           0       -2.355485    3.562983   -0.205232
     22          6           0       -2.007657   -1.127712   -2.881054
     23          1           0        0.077252   -1.309971   -2.292767
     24          6           0       -3.176282    0.878843   -2.141076
     25          6           0       -1.668282    4.481774    0.596745
     26          1           0        0.176439    5.021858    1.571763
     27          1           0       -3.390022    3.744560   -0.479505
     28          6           0       -3.154521   -0.336158   -2.844109
     29          1           0       -2.014163   -2.064045   -3.429152
     30          1           0       -4.068997    1.497069   -2.141748
     31          1           0       -2.180513    5.375498    0.937006
     32          1           0       -4.043673   -0.657398   -3.376735
     33          6           0       -0.877352   -0.482634    1.596734
     34          6           0       -0.304144   -2.258933    0.345185
     35          6           0       -0.864946    0.698980    2.334504
     36          6           0       -2.045453   -1.266218    1.462780
     37          6           0        0.393976   -3.193932   -0.433150
     38          6           0       -1.682304   -2.409928    0.645228
     39          6           0       -2.061035    1.093361    2.934728
     40          1           0        0.048610    1.270915    2.453504
     41          6           0       -3.219007   -0.868761    2.095280
     42          6           0       -0.322684   -4.276871   -0.916594
     43          1           0        1.455300   -3.072123   -0.626132
     44          6           0       -2.375730   -3.506847    0.147095
     45          6           0       -3.220047    0.319715    2.826763
     46          1           0       -2.084084    2.013763    3.509162
     47          1           0       -4.117230   -1.476089    2.029011
     48          6           0       -1.691435   -4.431979   -0.638182
     49          1           0        0.187928   -5.028422   -1.510945
     50          1           0       -3.431402   -3.641331    0.364463
     51          1           0       -4.128246    0.639801    3.327034
     52          1           0       -2.219478   -5.292884   -1.035337
     53          7           0        0.138673    1.073408   -0.802849
     54          7           0        0.169133   -1.095156    0.910704
 ---------------------------------------------------------------------

 SCF Done:  E(UM062X) =  -1448.58214692     A.U. after   20 cycles

 Alpha  occ. eigenvalues --  -14.86208 -14.85100 -14.73222 -14.73183 -10.62234
 Alpha  occ. eigenvalues --  -10.61938 -10.61647 -10.61352 -10.60358 -10.60286
 Alpha  occ. eigenvalues --  -10.59182 -10.58928 -10.58818 -10.58795 -10.58783
 Alpha  occ. eigenvalues --  -10.58717 -10.58542 -10.58385 -10.58304 -10.58163
 Alpha  occ. eigenvalues --  -10.58153 -10.58115 -10.58102 -10.58077 -10.58075
 Alpha  occ. eigenvalues --  -10.57935 -10.57790 -10.57721 -10.57717 -10.57660
 Alpha  occ. eigenvalues --  -10.57616 -10.57593 -10.57563 -10.57317 -10.55741
 Alpha  occ. eigenvalues --  -10.55677  -1.15645  -1.13474  -1.00709  -0.98785
 Alpha  occ. eigenvalues --   -0.98618  -0.98225  -0.97851  -0.97656  -0.95754
 Alpha  occ. eigenvalues --   -0.91687  -0.91095  -0.88374  -0.88146  -0.87749
 Alpha  occ. eigenvalues --   -0.87526  -0.84755  -0.84575  -0.83898  -0.83149
 Alpha  occ. eigenvalues --   -0.77694  -0.76203  -0.73837  -0.73250  -0.72549
 Alpha  occ. eigenvalues --   -0.71700  -0.69592  -0.69218  -0.68956  -0.68294
 Alpha  occ. eigenvalues --   -0.65084  -0.64197  -0.62592  -0.61842  -0.61746
 Alpha  occ. eigenvalues --   -0.60708  -0.59472  -0.58718  -0.56113  -0.55806
 Alpha  occ. eigenvalues --   -0.55147  -0.55095  -0.54238  -0.53926  -0.53268
 Alpha  occ. eigenvalues --   -0.53160  -0.53061  -0.52636  -0.52038  -0.51862
 Alpha  occ. eigenvalues --   -0.51398  -0.51310  -0.50816  -0.49252  -0.47470
 Alpha  occ. eigenvalues --   -0.46627  -0.46316  -0.45806  -0.45584  -0.45259
 Alpha  occ. eigenvalues --   -0.45043  -0.44685  -0.43366  -0.42912  -0.42612
 Alpha  occ. eigenvalues --   -0.42396  -0.41942  -0.41720  -0.40694  -0.40603
 Alpha  occ. eigenvalues --   -0.40581  -0.39618  -0.37231  -0.36660  -0.36569
 Alpha  occ. eigenvalues --   -0.36450  -0.34508  -0.33267  -0.32977  -0.30957
 Alpha  occ. eigenvalues --   -0.29953  -0.29119  -0.28683  -0.27721  -0.15462
 Alpha virt. eigenvalues --   -0.03101  -0.02514   0.00036   0.00207   0.01272
 Alpha virt. eigenvalues --    0.02958   0.03404   0.04897   0.05469   0.08967
 Alpha virt. eigenvalues --    0.10184   0.11204   0.11570   0.12157   0.12199

  Beta  occ. eigenvalues --  -14.85903 -14.84877 -14.73025 -14.72979 -10.62247
  Beta  occ. eigenvalues --  -10.61956 -10.61647 -10.61362 -10.60122 -10.60048
  Beta  occ. eigenvalues --  -10.59133 -10.58861 -10.58806 -10.58800 -10.58730
  Beta  occ. eigenvalues --  -10.58707 -10.58477 -10.58342 -10.58332 -10.58144
  Beta  occ. eigenvalues --  -10.58115 -10.58094 -10.58089 -10.58071 -10.58060
  Beta  occ. eigenvalues --  -10.57934 -10.57803 -10.57784 -10.57711 -10.57694
  Beta  occ. eigenvalues --  -10.57623 -10.57368 -10.57311 -10.57296 -10.55813
  Beta  occ. eigenvalues --  -10.55752  -1.14810  -1.12763  -1.00228  -0.98472
  Beta  occ. eigenvalues --   -0.98269  -0.97890  -0.97731  -0.97057  -0.95243
  Beta  occ. eigenvalues --   -0.91385  -0.90828  -0.88148  -0.87666  -0.87372
  Beta  occ. eigenvalues --   -0.87316  -0.84670  -0.84180  -0.83809  -0.82563
  Beta  occ. eigenvalues --   -0.77169  -0.75943  -0.73440  -0.72930  -0.72237
  Beta  occ. eigenvalues --   -0.71464  -0.69263  -0.68998  -0.68689  -0.68172
  Beta  occ. eigenvalues --   -0.64692  -0.63883  -0.62362  -0.61644  -0.61496
  Beta  occ. eigenvalues --   -0.60497  -0.58365  -0.58284  -0.55927  -0.55611
  Beta  occ. eigenvalues --   -0.54985  -0.54885  -0.53772  -0.53683  -0.52970
  Beta  occ. eigenvalues --   -0.52753  -0.52566  -0.52234  -0.51899  -0.51762
  Beta  occ. eigenvalues --   -0.51249  -0.51199  -0.50703  -0.48781  -0.46256
  Beta  occ. eigenvalues --   -0.46073  -0.45828  -0.45536  -0.45298  -0.45004
  Beta  occ. eigenvalues --   -0.44728  -0.44282  -0.43217  -0.42513  -0.42343
  Beta  occ. eigenvalues --   -0.41854  -0.41302  -0.40939  -0.40038  -0.39936
  Beta  occ. eigenvalues --   -0.38844  -0.37614  -0.36712  -0.36318  -0.36172
  Beta  occ. eigenvalues --   -0.36100  -0.33572  -0.31926  -0.31532  -0.29840
  Beta  occ. eigenvalues --   -0.28934  -0.26993  -0.26264
  Beta virt. eigenvalues --   -0.18188  -0.02653  -0.02132  -0.01453   0.00573
  Beta virt. eigenvalues --    0.00698   0.01566   0.03941   0.04194   0.05396
  Beta virt. eigenvalues --    0.05817   0.10494   0.11183   0.11631   0.11757

 Mulliken charges and spin densities:
               1          2
     1  C    0.156929   0.277519
     2  C    0.178905   0.277430
     3  C   -0.205685  -0.121955
     4  C    0.087820   0.337801
     5  C    0.083859   0.317972
     6  C   -0.190688  -0.117655
     7  H    0.200433   0.003246
     8  H    0.200773   0.002967
     9  C    0.192720  -0.074472
    10  N   -0.491948   0.171711
    11  C    0.189482  -0.078395
    12  N   -0.490637   0.178857
    13  C    0.280730  -0.029335
    14  C    0.273065  -0.029535
    15  C   -0.164562   0.099533
    16  C    0.053470   0.070706
    17  C   -0.152799   0.090739
    18  C    0.051817   0.014566
    19  C   -0.177988  -0.045424
    20  H    0.208463  -0.004906
    21  C   -0.190522  -0.027248
    22  C   -0.167688  -0.021399
    23  H    0.195510  -0.004122
    24  C   -0.190010   0.021272
    25  C   -0.169954   0.107929
    26  H    0.185751   0.001415
    27  H    0.181457   0.000897
    28  C   -0.170965   0.063006
    29  H    0.180493   0.000363
    30  H    0.180140  -0.001383
    31  H    0.179497  -0.005413
    32  H    0.176740  -0.003390
    33  C    0.275884  -0.018822
    34  C    0.278584  -0.014978
    35  C   -0.165447   0.059125
    36  C    0.038576   0.002587
    37  C   -0.174103   0.070153
    38  C    0.043400   0.060066
    39  C   -0.168698  -0.007620
    40  H    0.186513  -0.002857
    41  C   -0.183237   0.022327
    42  C   -0.179195  -0.033405
    43  H    0.202846  -0.003515
    44  C   -0.184830  -0.025242
    45  C   -0.175738   0.034045
    46  H    0.174631  -0.000047
    47  H    0.175808  -0.001278
    48  C   -0.175541   0.080947
    49  H    0.181481   0.001071
    50  H    0.176772   0.000994
    51  H    0.172068  -0.001904
    52  H    0.175215  -0.004034
    53  N   -0.668773   0.180918
    54  N   -0.680824   0.128174
 Sum of Mulliken charges =  -0.00000   2.00000

 Dipole moment (field-independent basis, Debye):
    X=            -16.4883    Y=              0.6538    Z=             -0.0990  Tot=             16.5016
 Quadrupole moment (field-independent basis, Debye-Ang):
   XX=           -270.2704   YY=           -177.8258   ZZ=           -202.1978
   XY=             -0.7138   XZ=              3.6289   YZ=             18.2270

 Normal termination of Gaussian 16 at Sat Jul 13 22:00:35 2024.
