 Gaussian 16, Revision C.01,
 Gaussian 16:  ES64L-G16RevC.01  3-Jul-2019

 ----------------------------------------------------------------------
 # 6-31g(d) m062x g09default scf=(xqc,maxcycle=64) force guess=read td
 nosymm
 ----------------------------------------------------------------------

 ----------
 Title Card
 ----------
 Symbolic Z-matrix:
 Charge =  0 Multiplicity = 1

                          Input orientation:
 ---------------------------------------------------------------------
 Center     Atomic      Atomic             Coordinates (Angstroms)
 Number     Number       Type             X           Y           Z
 ---------------------------------------------------------------------
      1          6           0        1.407892    0.496498   -0.479816
      2          6           0        1.425152   -0.501620    0.558800
      3          6           0        2.635172   -0.975180    1.017462
      4          6           0        3.845836   -0.495186    0.498061
      5          6           0        3.817810    0.492277   -0.576066
      6          6           0        2.583727    0.977804   -1.015713
      7          1           0        2.655730   -1.743967    1.787274
      8          1           0        2.553856    1.744156   -1.786499
      9          6           0        4.997791    0.963458   -1.202010
     10          7           0        5.948333    1.368788   -1.745702
     11          6           0        5.068315   -0.976378    1.027703
     12          7           0        6.066270   -1.382449    1.474156
     13          6           0       -0.326977    2.249170   -0.274028
     14          6           0       -0.877763    0.469558   -1.525938
     15          6           0        0.370551    3.166820    0.523154
     16          6           0       -1.686619    2.432381   -0.643809
     17          6           0       -0.834541   -0.728138   -2.235196
     18          6           0       -2.038453    1.276172   -1.460409
     19          6           0       -0.327833    4.284797    0.956712
     20          1           0        1.415417    3.004687    0.765415
     21          6           0       -2.356023    3.563126   -0.206058
     22          6           0       -2.008013   -1.127653   -2.882038
     23          1           0        0.078216   -1.308983   -2.293941
     24          6           0       -3.176611    0.879341   -2.139570
     25          6           0       -1.668486    4.482197    0.596439
     26          1           0        0.175584    5.022245    1.571308
     27          1           0       -3.390507    3.743071   -0.478576
     28          6           0       -3.154541   -0.336922   -2.844205
     29          1           0       -2.014782   -2.063770   -3.429331
     30          1           0       -4.070444    1.495108   -2.138912
     31          1           0       -2.181437    5.375067    0.937802
     32          1           0       -4.043470   -0.657343   -3.376049
     33          6           0       -0.876906   -0.483504    1.597851
     34          6           0       -0.303086   -2.260260    0.346330
     35          6           0       -0.864119    0.698740    2.334917
     36          6           0       -2.045279   -1.266452    1.462715
     37          6           0        0.393697   -3.193416   -0.432066
     38          6           0       -1.681979   -2.409586    0.647173
     39          6           0       -2.060392    1.093670    2.934580
     40          1           0        0.049791    1.270271    2.454340
     41          6           0       -3.218631   -0.867522    2.094251
     42          6           0       -0.322001   -4.277739   -0.917202
     43          1           0        1.454496   -3.070287   -0.627882
     44          6           0       -2.375865   -3.508023    0.146824
     45          6           0       -3.219947    0.320499    2.825828
     46          1           0       -2.083140    2.014109    3.509472
     47          1           0       -4.117224   -1.475130    2.027489
     48          6           0       -1.692046   -4.432138   -0.637530
     49          1           0        0.187239   -5.027560   -1.511629
     50          1           0       -3.431205   -3.641190    0.363666
     51          1           0       -4.127812    0.640452    3.326527
     52          1           0       -2.219592   -5.293305   -1.034648
     53          7           0        0.138619    1.074326   -0.803495
     54          7           0        0.169921   -1.096371    0.912264
 ---------------------------------------------------------------------

 SCF Done:  E(RM062X) =  -1448.68842101     A.U. after   10 cycles

 Excitation energies and oscillator strengths:

 Excited state symmetry could not be determined.
 Excited State   1:      Singlet-?Sym    2.8923 eV  428.67 nm  f=0.0113  <S**2>=0.000
     119 ->120         0.68954
 This state for optimization and/or second-order correction.
 Total Energy, E(TD-HF/TD-DFT) =  -1448.58213171
 Copying the excited state density for this state as the 1-particle RhoCI density.

 Excited state symmetry could not be determined.
 Excited State   2:      Singlet-?Sym    3.1724 eV  390.82 nm  f=0.0258  <S**2>=0.000
     118 ->120         0.68840

 Excited state symmetry could not be determined.
 Excited State   3:      Singlet-?Sym    3.5962 eV  344.76 nm  f=0.0022  <S**2>=0.000
     117 ->120         0.69462

 Alpha  occ. eigenvalues --  -14.82712 -14.82487 -14.79698 -14.79656 -10.65591
 Alpha  occ. eigenvalues --  -10.65469 -10.65319 -10.65242 -10.62098 -10.62009
 Alpha  occ. eigenvalues --  -10.61680 -10.61648 -10.60027 -10.59933 -10.59738
 Alpha  occ. eigenvalues --  -10.59622 -10.56238 -10.56130 -10.56043 -10.56038
 Alpha  occ. eigenvalues --  -10.56024 -10.55964 -10.55947 -10.55942 -10.55852
 Alpha  occ. eigenvalues --  -10.55844 -10.55806 -10.55685 -10.55667 -10.55659
 Alpha  occ. eigenvalues --  -10.55513 -10.55428 -10.55263 -10.55162 -10.54950
 Alpha  occ. eigenvalues --  -10.54887  -1.13884  -1.11547  -1.05104  -1.03299
 Alpha  occ. eigenvalues --   -1.01692  -0.96815  -0.96253  -0.95866  -0.95551
 Alpha  occ. eigenvalues --   -0.92261  -0.91725  -0.88359  -0.87639  -0.85715
 Alpha  occ. eigenvalues --   -0.85323  -0.83706  -0.82626  -0.81959  -0.81816
 Alpha  occ. eigenvalues --   -0.78818  -0.76923  -0.73327  -0.73013  -0.70015
 Alpha  occ. eigenvalues --   -0.69940  -0.69736  -0.69164  -0.66585  -0.66287
 Alpha  occ. eigenvalues --   -0.66247  -0.63682  -0.62265  -0.61352  -0.60168
 Alpha  occ. eigenvalues --   -0.59735  -0.59016  -0.58453  -0.56318  -0.55894
 Alpha  occ. eigenvalues --   -0.53872  -0.53497  -0.53164  -0.53100  -0.52696
 Alpha  occ. eigenvalues --   -0.52496  -0.51403  -0.51280  -0.50673  -0.50599
 Alpha  occ. eigenvalues --   -0.49301  -0.49225  -0.49194  -0.49143  -0.48662
 Alpha  occ. eigenvalues --   -0.48463  -0.46205  -0.46059  -0.45188  -0.44042
 Alpha  occ. eigenvalues --   -0.43737  -0.43435  -0.43256  -0.43051  -0.42628
 Alpha  occ. eigenvalues --   -0.42252  -0.42104  -0.41995  -0.40702  -0.40604
 Alpha  occ. eigenvalues --   -0.40385  -0.40171  -0.39810  -0.39396  -0.36440
 Alpha  occ. eigenvalues --   -0.34561  -0.34389  -0.33921  -0.31842  -0.30529
 Alpha  occ. eigenvalues --   -0.27389  -0.26653  -0.26426  -0.25090
 Alpha virt. eigenvalues --   -0.08055  -0.03928  -0.00510  -0.00325   0.02730
 Alpha virt. eigenvalues --    0.03558   0.04499   0.05371   0.05681   0.05829
 Alpha virt. eigenvalues --    0.07114   0.07452   0.07684   0.10861   0.10947

 Mulliken charges:
               1
     1  C    0.220752
     2  C    0.235621
     3  C   -0.197638
     4  C    0.130826
     5  C    0.126955
     6  C   -0.181556
     7  H    0.235177
     8  H    0.237364
     9  C    0.234630
    10  N   -0.441212
    11  C    0.231854
    12  N   -0.440775
    13  C    0.287603
    14  C    0.277685
    15  C   -0.186121
    16  C    0.042491
    17  C   -0.166846
    18  C    0.048652
    19  C   -0.173549
    20  H    0.159706
    21  C   -0.190404
    22  C   -0.166856
    23  H    0.159641
    24  C   -0.196115
    25  C   -0.186502
    26  H    0.166717
    27  H    0.170174
    28  C   -0.181572
    29  H    0.165823
    30  H    0.166794
    31  H    0.160231
    32  H    0.159783
    33  C    0.281154
    34  C    0.285142
    35  C   -0.167161
    36  C    0.039797
    37  C   -0.186721
    38  C    0.036990
    39  C   -0.167552
    40  H    0.159862
    41  C   -0.186262
    42  C   -0.174860
    43  H    0.160567
    44  C   -0.181003
    45  C   -0.180562
    46  H    0.165932
    47  H    0.166868
    48  C   -0.186439
    49  H    0.166944
    50  H    0.170129
    51  H    0.161361
    52  H    0.161672
    53  N   -0.717132
    54  N   -0.718062
 Sum of Mulliken charges =  -0.00000

 Dipole moment (field-independent basis, Debye):
    X=             -5.5261    Y=             -0.0124    Z=              0.2162  Tot=              5.5303
 Quadrupole moment (field-independent basis, Debye-Ang):
   XX=           -236.7906   YY=           -193.3731   ZZ=           -206.1423
   XY=              0.0654   XZ=              1.7539   YZ=             13.3014

 Normal termination of Gaussian 16 at Sat Jul 13 22:21:18 2024.
