 Gaussian 16, Revision C.01,
 Gaussian 16:  ES64L-G16RevC.01  3-Jul-2019

 ----------------------------------------------------------------------
 # 6-31g(d) m062x g09default scf=(xqc,maxcycle=64) force guess=read nos
 ymm
 ----------------------------------------------------------------------

 ----------
 Title Card
 ----------
 Symbolic Z-matrix:
 Charge =  0 Multiplicity = 3

                          Input orientation:
 ---------------------------------------------------------------------
 Center     Atomic      Atomic             Coordinates (Angstroms)
 Number     Number       Type             X           Y           Z
 ---------------------------------------------------------------------
      1          6           0        1.407892    0.496498   -0.479816
      2          6           0        1.425152   -0.501620    0.558800
      3          6           0        2.635172   -0.975180    1.017462
      4          6           0        3.845836   -0.495186    0.498061
      5          6           0        3.817810    0.492277   -0.576066
      6          6           0        2.583727    0.977804   -1.015713
      7          1           0        2.655730   -1.743967    1.787274
      8          1           0        2.553856    1.744156   -1.786499
      9          6           0        4.997791    0.963458   -1.202010
     10          7           0        5.948333    1.368788   -1.745702
     11          6           0        5.068315   -0.976378    1.027703
     12          7           0        6.066270   -1.382449    1.474156
     13          6           0       -0.326977    2.249170   -0.274028
     14          6           0       -0.877763    0.469558   -1.525938
     15          6           0        0.370551    3.166820    0.523154
     16          6           0       -1.686619    2.432381   -0.643809
     17          6           0       -0.834541   -0.728138   -2.235196
     18          6           0       -2.038453    1.276172   -1.460409
     19          6           0       -0.327833    4.284797    0.956712
     20          1           0        1.415417    3.004687    0.765415
     21          6           0       -2.356023    3.563126   -0.206058
     22          6           0       -2.008013   -1.127653   -2.882038
     23          1           0        0.078216   -1.308983   -2.293941
     24          6           0       -3.176611    0.879341   -2.139570
     25          6           0       -1.668486    4.482197    0.596439
     26          1           0        0.175584    5.022245    1.571308
     27          1           0       -3.390507    3.743071   -0.478576
     28          6           0       -3.154541   -0.336922   -2.844205
     29          1           0       -2.014782   -2.063770   -3.429331
     30          1           0       -4.070444    1.495108   -2.138912
     31          1           0       -2.181437    5.375067    0.937802
     32          1           0       -4.043470   -0.657343   -3.376049
     33          6           0       -0.876906   -0.483504    1.597851
     34          6           0       -0.303086   -2.260260    0.346330
     35          6           0       -0.864119    0.698740    2.334917
     36          6           0       -2.045279   -1.266452    1.462715
     37          6           0        0.393697   -3.193416   -0.432066
     38          6           0       -1.681979   -2.409586    0.647173
     39          6           0       -2.060392    1.093670    2.934580
     40          1           0        0.049791    1.270271    2.454340
     41          6           0       -3.218631   -0.867522    2.094251
     42          6           0       -0.322001   -4.277739   -0.917202
     43          1           0        1.454496   -3.070287   -0.627882
     44          6           0       -2.375865   -3.508023    0.146824
     45          6           0       -3.219947    0.320499    2.825828
     46          1           0       -2.083140    2.014109    3.509472
     47          1           0       -4.117224   -1.475130    2.027489
     48          6           0       -1.692046   -4.432138   -0.637530
     49          1           0        0.187239   -5.027560   -1.511629
     50          1           0       -3.431205   -3.641190    0.363666
     51          1           0       -4.127812    0.640452    3.326527
     52          1           0       -2.219592   -5.293305   -1.034648
     53          7           0        0.138619    1.074326   -0.803495
     54          7           0        0.169921   -1.096371    0.912264
 ---------------------------------------------------------------------

 SCF Done:  E(UM062X) =  -1448.58204017     A.U. after   19 cycles

 Alpha  occ. eigenvalues --  -14.86302 -14.85035 -14.73179 -14.73145 -10.62306
 Alpha  occ. eigenvalues --  -10.61995 -10.61607 -10.61331 -10.60301 -10.60246
 Alpha  occ. eigenvalues --  -10.59264 -10.59001 -10.58889 -10.58872 -10.58849
 Alpha  occ. eigenvalues --  -10.58776 -10.58628 -10.58373 -10.58367 -10.58217
 Alpha  occ. eigenvalues --  -10.58137 -10.58125 -10.58102 -10.58090 -10.58051
 Alpha  occ. eigenvalues --  -10.57901 -10.57766 -10.57709 -10.57697 -10.57617
 Alpha  occ. eigenvalues --  -10.57608 -10.57540 -10.57492 -10.57297 -10.55708
 Alpha  occ. eigenvalues --  -10.55652  -1.15668  -1.13445  -1.00710  -0.98760
 Alpha  occ. eigenvalues --   -0.98663  -0.98203  -0.97822  -0.97569  -0.95737
 Alpha  occ. eigenvalues --   -0.91732  -0.91069  -0.88428  -0.88167  -0.87718
 Alpha  occ. eigenvalues --   -0.87515  -0.84807  -0.84574  -0.83861  -0.83159
 Alpha  occ. eigenvalues --   -0.77694  -0.76199  -0.73852  -0.73266  -0.72587
 Alpha  occ. eigenvalues --   -0.71662  -0.69594  -0.69240  -0.68968  -0.68280
 Alpha  occ. eigenvalues --   -0.65089  -0.64159  -0.62665  -0.61830  -0.61781
 Alpha  occ. eigenvalues --   -0.60710  -0.59460  -0.58724  -0.56134  -0.55854
 Alpha  occ. eigenvalues --   -0.55117  -0.55107  -0.54269  -0.53956  -0.53297
 Alpha  occ. eigenvalues --   -0.53159  -0.53052  -0.52614  -0.52095  -0.51827
 Alpha  occ. eigenvalues --   -0.51440  -0.51286  -0.50811  -0.49211  -0.47454
 Alpha  occ. eigenvalues --   -0.46630  -0.46341  -0.45859  -0.45627  -0.45243
 Alpha  occ. eigenvalues --   -0.45036  -0.44681  -0.43426  -0.42943  -0.42581
 Alpha  occ. eigenvalues --   -0.42446  -0.41934  -0.41717  -0.40649  -0.40545
 Alpha  occ. eigenvalues --   -0.40505  -0.39583  -0.37297  -0.36593  -0.36535
 Alpha  occ. eigenvalues --   -0.36406  -0.34547  -0.33239  -0.32980  -0.30937
 Alpha  occ. eigenvalues --   -0.29981  -0.29156  -0.28661  -0.27724  -0.15372
 Alpha virt. eigenvalues --   -0.03181  -0.02527   0.00019   0.00210   0.01295
 Alpha virt. eigenvalues --    0.02898   0.03428   0.04845   0.05474   0.09011
 Alpha virt. eigenvalues --    0.10212   0.11270   0.11546   0.12150   0.12198

  Beta  occ. eigenvalues --  -14.85991 -14.84816 -14.72982 -14.72942 -10.62321
  Beta  occ. eigenvalues --  -10.62013 -10.61607 -10.61340 -10.60067 -10.60009
  Beta  occ. eigenvalues --  -10.59213 -10.58932 -10.58876 -10.58866 -10.58806
  Beta  occ. eigenvalues --  -10.58767 -10.58561 -10.58396 -10.58329 -10.58206
  Beta  occ. eigenvalues --  -10.58124 -10.58078 -10.58076 -10.58067 -10.58058
  Beta  occ. eigenvalues --  -10.57900 -10.57794 -10.57768 -10.57676 -10.57667
  Beta  occ. eigenvalues --  -10.57622 -10.57300 -10.57276 -10.57238 -10.55780
  Beta  occ. eigenvalues --  -10.55726  -1.14823  -1.12741  -1.00233  -0.98516
  Beta  occ. eigenvalues --   -0.98250  -0.97863  -0.97701  -0.96973  -0.95229
  Beta  occ. eigenvalues --   -0.91432  -0.90803  -0.88198  -0.87683  -0.87354
  Beta  occ. eigenvalues --   -0.87297  -0.84726  -0.84168  -0.83774  -0.82576
  Beta  occ. eigenvalues --   -0.77179  -0.75937  -0.73453  -0.72943  -0.72272
  Beta  occ. eigenvalues --   -0.71428  -0.69262  -0.69037  -0.68680  -0.68162
  Beta  occ. eigenvalues --   -0.64695  -0.63845  -0.62433  -0.61631  -0.61531
  Beta  occ. eigenvalues --   -0.60500  -0.58356  -0.58287  -0.55946  -0.55656
  Beta  occ. eigenvalues --   -0.54950  -0.54908  -0.53795  -0.53723  -0.52964
  Beta  occ. eigenvalues --   -0.52747  -0.52585  -0.52219  -0.51952  -0.51720
  Beta  occ. eigenvalues --   -0.51288  -0.51178  -0.50699  -0.48741  -0.46277
  Beta  occ. eigenvalues --   -0.46088  -0.45845  -0.45564  -0.45323  -0.44996
  Beta  occ. eigenvalues --   -0.44721  -0.44279  -0.43274  -0.42474  -0.42390
  Beta  occ. eigenvalues --   -0.41871  -0.41315  -0.40921  -0.39997  -0.39887
  Beta  occ. eigenvalues --   -0.38770  -0.37597  -0.36766  -0.36246  -0.36148
  Beta  occ. eigenvalues --   -0.36061  -0.33591  -0.31939  -0.31500  -0.29880
  Beta  occ. eigenvalues --   -0.28903  -0.27016  -0.26264
  Beta virt. eigenvalues --   -0.18200  -0.02718  -0.02148  -0.01393   0.00558
  Beta virt. eigenvalues --    0.00698   0.01587   0.03913   0.04195   0.05356
  Beta virt. eigenvalues --    0.05818   0.10522   0.11211   0.11611   0.11813

 Mulliken charges and spin densities:
               1          2
     1  C    0.156248   0.273713
     2  C    0.178699   0.277385
     3  C   -0.205912  -0.121075
     4  C    0.086963   0.335109
     5  C    0.083135   0.316113
     6  C   -0.191239  -0.116357
     7  H    0.200489   0.003232
     8  H    0.200689   0.002929
     9  C    0.192734  -0.073992
    10  N   -0.492987   0.171528
    11  C    0.190473  -0.077524
    12  N   -0.491354   0.177293
    13  C    0.282337  -0.030085
    14  C    0.273616  -0.030580
    15  C   -0.164354   0.102106
    16  C    0.053103   0.072748
    17  C   -0.153076   0.093168
    18  C    0.052994   0.013859
    19  C   -0.177785  -0.046755
    20  H    0.209052  -0.005030
    21  C   -0.190224  -0.028363
    22  C   -0.167403  -0.021622
    23  H    0.196335  -0.004247
    24  C   -0.190731   0.022567
    25  C   -0.169639   0.111006
    26  H    0.186291   0.001454
    27  H    0.181727   0.000928
    28  C   -0.170526   0.063793
    29  H    0.181000   0.000354
    30  H    0.180513  -0.001447
    31  H    0.179940  -0.005563
    32  H    0.177134  -0.003436
    33  C    0.275477  -0.018404
    34  C    0.279941  -0.014223
    35  C   -0.165879   0.058138
    36  C    0.038884   0.001745
    37  C   -0.175299   0.068731
    38  C    0.041344   0.060126
    39  C   -0.168907  -0.006737
    40  H    0.186313  -0.002821
    41  C   -0.183276   0.023065
    42  C   -0.179238  -0.032988
    43  H    0.202668  -0.003470
    44  C   -0.183645  -0.025215
    45  C   -0.175883   0.032800
    46  H    0.174394  -0.000087
    47  H    0.175622  -0.001306
    48  C   -0.175876   0.079668
    49  H    0.181551   0.001061
    50  H    0.176447   0.000998
    51  H    0.171934  -0.001844
    52  H    0.174927  -0.003971
    53  N   -0.668303   0.185483
    54  N   -0.681437   0.126038
 Sum of Mulliken charges =  -0.00000   2.00000

 Dipole moment (field-independent basis, Debye):
    X=            -16.5854    Y=              0.7341    Z=             -0.1448  Tot=             16.6023
 Quadrupole moment (field-independent basis, Debye-Ang):
   XX=           -270.5967   YY=           -177.7318   ZZ=           -202.1362
   XY=             -0.8264   XZ=              3.7583   YZ=             18.3075

 Normal termination of Gaussian 16 at Sat Jul 13 22:12:08 2024.
