 Gaussian 16, Revision C.01,
 Gaussian 16:  ES64L-G16RevC.01  3-Jul-2019

 ----------------------------------------------------------------------
 # 6-31g(d) m062x g09default scf=(xqc,maxcycle=64) force guess=read td
 nosymm
 ----------------------------------------------------------------------

 ----------
 Title Card
 ----------
 Symbolic Z-matrix:
 Charge =  0 Multiplicity = 1

                          Input orientation:
 ---------------------------------------------------------------------
 Center     Atomic      Atomic             Coordinates (Angstroms)
 Number     Number       Type             X           Y           Z
 ---------------------------------------------------------------------
      1          6           0        1.408706    0.493517   -0.480043
      2          6           0        1.424765   -0.501160    0.559071
      3          6           0        2.635413   -0.974065    1.018685
      4          6           0        3.845671   -0.493993    0.496573
      5          6           0        3.815969    0.491096   -0.573214
      6          6           0        2.584055    0.975280   -1.016844
      7          1           0        2.653150   -1.743998    1.788020
      8          1           0        2.555443    1.739984   -1.790489
      9          6           0        4.998582    0.965588   -1.200425
     10          7           0        5.947599    1.368244   -1.739266
     11          6           0        5.069014   -0.977350    1.027353
     12          7           0        6.063840   -1.384035    1.472171
     13          6           0       -0.325591    2.249682   -0.280365
     14          6           0       -0.877048    0.472888   -1.529234
     15          6           0        0.371331    3.169480    0.521646
     16          6           0       -1.686624    2.437250   -0.650398
     17          6           0       -0.832962   -0.727065   -2.236869
     18          6           0       -2.039441    1.277806   -1.462712
     19          6           0       -0.328232    4.286131    0.953962
     20          1           0        1.411469    2.999429    0.774037
     21          6           0       -2.355963    3.562286   -0.209035
     22          6           0       -2.008376   -1.126282   -2.884181
     23          1           0        0.081085   -1.305544   -2.297445
     24          6           0       -3.177577    0.878694   -2.135891
     25          6           0       -1.668684    4.482940    0.595247
     26          1           0        0.173523    5.024275    1.570517
     27          1           0       -3.392968    3.738530   -0.475857
     28          6           0       -3.153308   -0.337625   -2.843101
     29          1           0       -2.016767   -2.063629   -3.430267
     30          1           0       -4.075818    1.489327   -2.129588
     31          1           0       -2.184414    5.373723    0.940362
     32          1           0       -4.043822   -0.657595   -3.374422
     33          6           0       -0.874066   -0.486520    1.601712
     34          6           0       -0.302440   -2.260307    0.352106
     35          6           0       -0.861681    0.697676    2.336263
     36          6           0       -2.043837   -1.266638    1.462988
     37          6           0        0.394149   -3.195439   -0.431641
     38          6           0       -1.681843   -2.412207    0.650815
     39          6           0       -2.058303    1.094921    2.934092
     40          1           0        0.053525    1.268030    2.456978
     41          6           0       -3.219196   -0.863829    2.091198
     42          6           0       -0.322274   -4.277182   -0.916485
     43          1           0        1.452024   -3.064141   -0.633339
     44          6           0       -2.375139   -3.508547    0.147816
     45          6           0       -3.219446    0.323165    2.822877
     46          1           0       -2.080093    2.014937    3.510320
     47          1           0       -4.116753   -1.471649    2.022609
     48          6           0       -1.691768   -4.433505   -0.636608
     49          1           0        0.186189   -5.026246   -1.514965
     50          1           0       -3.431237   -3.641077    0.361211
     51          1           0       -4.126594    0.642539    3.324939
     52          1           0       -2.220304   -5.295008   -1.032534
     53          7           0        0.138254    1.076444   -0.805668
     54          7           0        0.172502   -1.100514    0.917512
 ---------------------------------------------------------------------

 SCF Done:  E(RM062X) =  -1448.68867430     A.U. after   11 cycles

 Excitation energies and oscillator strengths:

 Excited state symmetry could not be determined.
 Excited State   1:      Singlet-?Sym    2.8982 eV  427.80 nm  f=0.0111  <S**2>=0.000
     119 ->120         0.68982
 This state for optimization and/or second-order correction.
 Total Energy, E(TD-HF/TD-DFT) =  -1448.58216747
 Copying the excited state density for this state as the 1-particle RhoCI density.

 Excited state symmetry could not be determined.
 Excited State   2:      Singlet-?Sym    3.1863 eV  389.12 nm  f=0.0251  <S**2>=0.000
     118 ->120         0.68863

 Excited state symmetry could not be determined.
 Excited State   3:      Singlet-?Sym    3.6156 eV  342.91 nm  f=0.0022  <S**2>=0.000
     117 ->120         0.69440

 Alpha  occ. eigenvalues --  -14.82751 -14.82529 -14.79604 -14.79599 -10.65632
 Alpha  occ. eigenvalues --  -10.65530 -10.65339 -10.65264 -10.62135 -10.62043
 Alpha  occ. eigenvalues --  -10.61615 -10.61609 -10.60038 -10.59954 -10.59729
 Alpha  occ. eigenvalues --  -10.59623 -10.56241 -10.56119 -10.56029 -10.56025
 Alpha  occ. eigenvalues --  -10.55993 -10.55948 -10.55918 -10.55914 -10.55851
 Alpha  occ. eigenvalues --  -10.55829 -10.55828 -10.55693 -10.55675 -10.55646
 Alpha  occ. eigenvalues --  -10.55526 -10.55421 -10.55254 -10.55147 -10.54954
 Alpha  occ. eigenvalues --  -10.54873  -1.13931  -1.11632  -1.05215  -1.03456
 Alpha  occ. eigenvalues --   -1.01809  -0.96830  -0.96248  -0.95834  -0.95522
 Alpha  occ. eigenvalues --   -0.92279  -0.91769  -0.88353  -0.87646  -0.85692
 Alpha  occ. eigenvalues --   -0.85296  -0.83678  -0.82597  -0.81968  -0.81809
 Alpha  occ. eigenvalues --   -0.78794  -0.76954  -0.73304  -0.73032  -0.70044
 Alpha  occ. eigenvalues --   -0.69958  -0.69767  -0.69114  -0.66566  -0.66296
 Alpha  occ. eigenvalues --   -0.66220  -0.63665  -0.62299  -0.61368  -0.60155
 Alpha  occ. eigenvalues --   -0.59732  -0.59002  -0.58467  -0.56324  -0.55887
 Alpha  occ. eigenvalues --   -0.53888  -0.53506  -0.53158  -0.53103  -0.52687
 Alpha  occ. eigenvalues --   -0.52500  -0.51408  -0.51287  -0.50686  -0.50593
 Alpha  occ. eigenvalues --   -0.49331  -0.49242  -0.49164  -0.49106  -0.48646
 Alpha  occ. eigenvalues --   -0.48480  -0.46204  -0.46052  -0.45257  -0.44080
 Alpha  occ. eigenvalues --   -0.43710  -0.43463  -0.43282  -0.43013  -0.42636
 Alpha  occ. eigenvalues --   -0.42233  -0.42188  -0.42125  -0.40717  -0.40612
 Alpha  occ. eigenvalues --   -0.40396  -0.40163  -0.39774  -0.39397  -0.36483
 Alpha  occ. eigenvalues --   -0.34601  -0.34399  -0.34007  -0.31814  -0.30495
 Alpha  occ. eigenvalues --   -0.27386  -0.26671  -0.26416  -0.25049
 Alpha virt. eigenvalues --   -0.07989  -0.03960  -0.00484  -0.00280   0.02706
 Alpha virt. eigenvalues --    0.03531   0.04585   0.05371   0.05714   0.05974
 Alpha virt. eigenvalues --    0.07131   0.07469   0.07719   0.10790   0.10983

 Mulliken charges:
               1
     1  C    0.219464
     2  C    0.234897
     3  C   -0.197236
     4  C    0.129498
     5  C    0.124146
     6  C   -0.181313
     7  H    0.235385
     8  H    0.238104
     9  C    0.235984
    10  N   -0.439132
    11  C    0.232865
    12  N   -0.439207
    13  C    0.287009
    14  C    0.276537
    15  C   -0.184923
    16  C    0.044091
    17  C   -0.167545
    18  C    0.050217
    19  C   -0.173196
    20  H    0.158857
    21  C   -0.192048
    22  C   -0.166479
    23  H    0.159472
    24  C   -0.197454
    25  C   -0.186897
    26  H    0.166486
    27  H    0.170010
    28  C   -0.181445
    29  H    0.165847
    30  H    0.166914
    31  H    0.160088
    32  H    0.159491
    33  C    0.280699
    34  C    0.282895
    35  C   -0.167185
    36  C    0.037604
    37  C   -0.184653
    38  C    0.038964
    39  C   -0.167567
    40  H    0.159625
    41  C   -0.185198
    42  C   -0.175035
    43  H    0.159829
    44  C   -0.181662
    45  C   -0.180645
    46  H    0.166011
    47  H    0.166781
    48  C   -0.186269
    49  H    0.166677
    50  H    0.170004
    51  H    0.161376
    52  H    0.161781
    53  N   -0.716124
    54  N   -0.716397
 Sum of Mulliken charges =  -0.00000

 Dipole moment (field-independent basis, Debye):
    X=             -5.4849    Y=             -0.0247    Z=              0.2199  Tot=              5.4893
 Quadrupole moment (field-independent basis, Debye-Ang):
   XX=           -236.6343   YY=           -193.6583   ZZ=           -206.0877
   XY=              0.1069   XZ=              1.6869   YZ=             13.3228

 Normal termination of Gaussian 16 at Sat Jul 13 22:33:08 2024.
