 Gaussian 16, Revision C.01,
 Gaussian 16:  ES64L-G16RevC.01  3-Jul-2019

 ----------------------------------------------------------------------
 # 6-31g(d) m062x g09default scf=(xqc,maxcycle=64) force guess=read nos
 ymm
 ----------------------------------------------------------------------

 ----------
 Title Card
 ----------
 Symbolic Z-matrix:
 Charge =  0 Multiplicity = 3

                          Input orientation:
 ---------------------------------------------------------------------
 Center     Atomic      Atomic             Coordinates (Angstroms)
 Number     Number       Type             X           Y           Z
 ---------------------------------------------------------------------
      1          6           0        1.408706    0.493517   -0.480043
      2          6           0        1.424765   -0.501160    0.559071
      3          6           0        2.635413   -0.974065    1.018685
      4          6           0        3.845671   -0.493993    0.496573
      5          6           0        3.815969    0.491096   -0.573214
      6          6           0        2.584055    0.975280   -1.016844
      7          1           0        2.653150   -1.743998    1.788020
      8          1           0        2.555443    1.739984   -1.790489
      9          6           0        4.998582    0.965588   -1.200425
     10          7           0        5.947599    1.368244   -1.739266
     11          6           0        5.069014   -0.977350    1.027353
     12          7           0        6.063840   -1.384035    1.472171
     13          6           0       -0.325591    2.249682   -0.280365
     14          6           0       -0.877048    0.472888   -1.529234
     15          6           0        0.371331    3.169480    0.521646
     16          6           0       -1.686624    2.437250   -0.650398
     17          6           0       -0.832962   -0.727065   -2.236869
     18          6           0       -2.039441    1.277806   -1.462712
     19          6           0       -0.328232    4.286131    0.953962
     20          1           0        1.411469    2.999429    0.774037
     21          6           0       -2.355963    3.562286   -0.209035
     22          6           0       -2.008376   -1.126282   -2.884181
     23          1           0        0.081085   -1.305544   -2.297445
     24          6           0       -3.177577    0.878694   -2.135891
     25          6           0       -1.668684    4.482940    0.595247
     26          1           0        0.173523    5.024275    1.570517
     27          1           0       -3.392968    3.738530   -0.475857
     28          6           0       -3.153308   -0.337625   -2.843101
     29          1           0       -2.016767   -2.063629   -3.430267
     30          1           0       -4.075818    1.489327   -2.129588
     31          1           0       -2.184414    5.373723    0.940362
     32          1           0       -4.043822   -0.657595   -3.374422
     33          6           0       -0.874066   -0.486520    1.601712
     34          6           0       -0.302440   -2.260307    0.352106
     35          6           0       -0.861681    0.697676    2.336263
     36          6           0       -2.043837   -1.266638    1.462988
     37          6           0        0.394149   -3.195439   -0.431641
     38          6           0       -1.681843   -2.412207    0.650815
     39          6           0       -2.058303    1.094921    2.934092
     40          1           0        0.053525    1.268030    2.456978
     41          6           0       -3.219196   -0.863829    2.091198
     42          6           0       -0.322274   -4.277182   -0.916485
     43          1           0        1.452024   -3.064141   -0.633339
     44          6           0       -2.375139   -3.508547    0.147816
     45          6           0       -3.219446    0.323165    2.822877
     46          1           0       -2.080093    2.014937    3.510320
     47          1           0       -4.116753   -1.471649    2.022609
     48          6           0       -1.691768   -4.433505   -0.636608
     49          1           0        0.186189   -5.026246   -1.514965
     50          1           0       -3.431237   -3.641077    0.361211
     51          1           0       -4.126594    0.642539    3.324939
     52          1           0       -2.220304   -5.295008   -1.032534
     53          7           0        0.138254    1.076444   -0.805668
     54          7           0        0.172502   -1.100514    0.917512
 ---------------------------------------------------------------------

 SCF Done:  E(UM062X) =  -1448.58167409     A.U. after   21 cycles

 Alpha  occ. eigenvalues --  -14.86534 -14.84888 -14.72979 -14.72921 -10.62482
 Alpha  occ. eigenvalues --  -10.62117 -10.61556 -10.61247 -10.60172 -10.60118
 Alpha  occ. eigenvalues --  -10.59417 -10.59187 -10.59057 -10.59036 -10.58989
 Alpha  occ. eigenvalues --  -10.58907 -10.58834 -10.58494 -10.58354 -10.58292
 Alpha  occ. eigenvalues --  -10.58263 -10.58058 -10.58053 -10.58034 -10.57989
 Alpha  occ. eigenvalues --  -10.57828 -10.57705 -10.57652 -10.57635 -10.57596
 Alpha  occ. eigenvalues --  -10.57482 -10.57379 -10.57334 -10.57232 -10.55548
 Alpha  occ. eigenvalues --  -10.55463  -1.15797  -1.13457  -1.00699  -0.98822
 Alpha  occ. eigenvalues --   -0.98767  -0.98185  -0.97745  -0.97581  -0.95742
 Alpha  occ. eigenvalues --   -0.91832  -0.91008  -0.88539  -0.88183  -0.87637
 Alpha  occ. eigenvalues --   -0.87440  -0.84965  -0.84561  -0.83800  -0.83137
 Alpha  occ. eigenvalues --   -0.77711  -0.76160  -0.73831  -0.73285  -0.72672
 Alpha  occ. eigenvalues --   -0.71614  -0.69583  -0.69305  -0.68961  -0.68219
 Alpha  occ. eigenvalues --   -0.65091  -0.64098  -0.62793  -0.61858  -0.61750
 Alpha  occ. eigenvalues --   -0.60695  -0.59430  -0.58684  -0.56182  -0.55990
 Alpha  occ. eigenvalues --   -0.55084  -0.55068  -0.54347  -0.54013  -0.53367
 Alpha  occ. eigenvalues --   -0.53153  -0.53026  -0.52562  -0.52217  -0.51803
 Alpha  occ. eigenvalues --   -0.51489  -0.51201  -0.50750  -0.49116  -0.47375
 Alpha  occ. eigenvalues --   -0.46665  -0.46409  -0.45962  -0.45693  -0.45212
 Alpha  occ. eigenvalues --   -0.44971  -0.44671  -0.43581  -0.43018  -0.42590
 Alpha  occ. eigenvalues --   -0.42479  -0.41885  -0.41631  -0.40546  -0.40423
 Alpha  occ. eigenvalues --   -0.40400  -0.39542  -0.37462  -0.36567  -0.36506
 Alpha  occ. eigenvalues --   -0.36401  -0.34616  -0.33167  -0.32944  -0.30890
 Alpha  occ. eigenvalues --   -0.30104  -0.29230  -0.28639  -0.27683  -0.15165
 Alpha virt. eigenvalues --   -0.03281  -0.02466  -0.00099   0.00260   0.01306
 Alpha virt. eigenvalues --    0.02770   0.03483   0.04751   0.05533   0.09145
 Alpha virt. eigenvalues --    0.10437   0.11429   0.11573   0.12062   0.12213

  Beta  occ. eigenvalues --  -14.86210 -14.84680 -14.72794 -14.72724 -10.62498
  Beta  occ. eigenvalues --  -10.62138 -10.61554 -10.61255 -10.59940 -10.59881
  Beta  occ. eigenvalues --  -10.59363 -10.59114 -10.59022 -10.59007 -10.58988
  Beta  occ. eigenvalues --  -10.58898 -10.58762 -10.58528 -10.58335 -10.58257
  Beta  occ. eigenvalues --  -10.58249 -10.58019 -10.58013 -10.58011 -10.58005
  Beta  occ. eigenvalues --  -10.57828 -10.57737 -10.57705 -10.57607 -10.57600
  Beta  occ. eigenvalues --  -10.57566 -10.57214 -10.57132 -10.57077 -10.55616
  Beta  occ. eigenvalues --  -10.55536  -1.14930  -1.12778  -1.00227  -0.98630
  Beta  occ. eigenvalues --   -0.98306  -0.97844  -0.97627  -0.97011  -0.95247
  Beta  occ. eigenvalues --   -0.91534  -0.90747  -0.88295  -0.87686  -0.87301
  Beta  occ. eigenvalues --   -0.87210  -0.84888  -0.84135  -0.83714  -0.82567
  Beta  occ. eigenvalues --   -0.77211  -0.75893  -0.73427  -0.72955  -0.72349
  Beta  occ. eigenvalues --   -0.71388  -0.69239  -0.69128  -0.68644  -0.68105
  Beta  occ. eigenvalues --   -0.64694  -0.63785  -0.62556  -0.61599  -0.61560
  Beta  occ. eigenvalues --   -0.60482  -0.58343  -0.58234  -0.55983  -0.55784
  Beta  occ. eigenvalues --   -0.54913  -0.54882  -0.53835  -0.53814  -0.52960
  Beta  occ. eigenvalues --   -0.52732  -0.52617  -0.52194  -0.52066  -0.51670
  Beta  occ. eigenvalues --   -0.51341  -0.51098  -0.50640  -0.48646  -0.46354
  Beta  occ. eigenvalues --   -0.46087  -0.45881  -0.45599  -0.45337  -0.44967
  Beta  occ. eigenvalues --   -0.44671  -0.44273  -0.43425  -0.42479  -0.42393
  Beta  occ. eigenvalues --   -0.41830  -0.41354  -0.40885  -0.39924  -0.39769
  Beta  occ. eigenvalues --   -0.38731  -0.37624  -0.36900  -0.36243  -0.36133
  Beta  occ. eigenvalues --   -0.36058  -0.33594  -0.31921  -0.31433  -0.30021
  Beta  occ. eigenvalues --   -0.28877  -0.27074  -0.26224
  Beta virt. eigenvalues --   -0.18208  -0.02779  -0.02093  -0.01242   0.00460
  Beta virt. eigenvalues --    0.00727   0.01598   0.03859   0.04205   0.05296
  Beta virt. eigenvalues --    0.05870   0.10736   0.11286   0.11531   0.12046

 Mulliken charges and spin densities:
               1          2
     1  C    0.151954   0.272160
     2  C    0.177069   0.274114
     3  C   -0.205680  -0.119214
     4  C    0.084266   0.332434
     5  C    0.079190   0.306407
     6  C   -0.191613  -0.113231
     7  H    0.199908   0.003202
     8  H    0.200196   0.002821
     9  C    0.193740  -0.069018
    10  N   -0.491358   0.161386
    11  C    0.190454  -0.074789
    12  N   -0.490791   0.172402
    13  C    0.282178  -0.032195
    14  C    0.272640  -0.032840
    15  C   -0.161100   0.109751
    16  C    0.055777   0.077152
    17  C   -0.152076   0.099326
    18  C    0.054851   0.013626
    19  C   -0.177739  -0.050186
    20  H    0.210393  -0.005414
    21  C   -0.191725  -0.030628
    22  C   -0.166814  -0.022654
    23  H    0.198102  -0.004539
    24  C   -0.191481   0.024777
    25  C   -0.168541   0.120040
    26  H    0.187200   0.001552
    27  H    0.182461   0.000986
    28  C   -0.169731   0.066883
    29  H    0.182079   0.000350
    30  H    0.181410  -0.001565
    31  H    0.181163  -0.006007
    32  H    0.177847  -0.003610
    33  C    0.275130  -0.017195
    34  C    0.277806  -0.012518
    35  C   -0.167517   0.055047
    36  C    0.035833  -0.000181
    37  C   -0.173899   0.067541
    38  C    0.042873   0.060014
    39  C   -0.169019  -0.004523
    40  H    0.185633  -0.002725
    41  C   -0.182319   0.024545
    42  C   -0.179660  -0.032417
    43  H    0.202236  -0.003461
    44  C   -0.184746  -0.025490
    45  C   -0.176683   0.029514
    46  H    0.173790  -0.000183
    47  H    0.175134  -0.001355
    48  C   -0.175980   0.079331
    49  H    0.181051   0.001043
    50  H    0.175904   0.001016
    51  H    0.171340  -0.001684
    52  H    0.174661  -0.003952
    53  N   -0.665138   0.194660
    54  N   -0.680655   0.119497
 Sum of Mulliken charges =  -0.00000   2.00000

 Dipole moment (field-independent basis, Debye):
    X=            -16.7787    Y=              0.9362    Z=             -0.2741  Tot=             16.8071
 Quadrupole moment (field-independent basis, Debye-Ang):
   XX=           -271.0954   YY=           -177.4961   ZZ=           -201.9971
   XY=             -0.9664   XZ=              3.9602   YZ=             18.4336

 Normal termination of Gaussian 16 at Sat Jul 13 22:23:35 2024.
