 Gaussian 16, Revision C.01,
 Gaussian 16:  ES64L-G16RevC.01  3-Jul-2019

 ----------------------------------------------------------------------
 # 6-31g(d) m062x g09default scf=(xqc,maxcycle=64) force guess=read td
 nosymm
 ----------------------------------------------------------------------

 ----------
 Title Card
 ----------
 Symbolic Z-matrix:
 Charge =  0 Multiplicity = 1

                          Input orientation:
 ---------------------------------------------------------------------
 Center     Atomic      Atomic             Coordinates (Angstroms)
 Number     Number       Type             X           Y           Z
 ---------------------------------------------------------------------
      1          6           0        1.408462    0.492371   -0.480465
      2          6           0        1.425199   -0.500316    0.560355
      3          6           0        2.634717   -0.972840    1.019160
      4          6           0        3.846415   -0.494496    0.497479
      5          6           0        3.816506    0.491499   -0.573573
      6          6           0        2.584172    0.973566   -1.018631
      7          1           0        2.652903   -1.742945    1.787122
      8          1           0        2.555888    1.738245   -1.790486
      9          6           0        4.998642    0.965892   -1.199278
     10          7           0        5.947246    1.368250   -1.737774
     11          6           0        5.068959   -0.977504    1.026616
     12          7           0        6.063410   -1.384499    1.471878
     13          6           0       -0.325773    2.249077   -0.279279
     14          6           0       -0.875977    0.474184   -1.531220
     15          6           0        0.371169    3.168702    0.521212
     16          6           0       -1.686232    2.437068   -0.651468
     17          6           0       -0.832879   -0.726486   -2.237163
     18          6           0       -2.039147    1.278576   -1.463634
     19          6           0       -0.327986    4.286882    0.953629
     20          1           0        1.410966    2.998736    0.775736
     21          6           0       -2.356523    3.562881   -0.209879
     22          6           0       -2.007720   -1.126465   -2.884245
     23          1           0        0.081415   -1.304786   -2.298051
     24          6           0       -3.178566    0.878209   -2.135445
     25          6           0       -1.668805    4.483094    0.594589
     26          1           0        0.173012    5.024462    1.570351
     27          1           0       -3.393700    3.737641   -0.475272
     28          6           0       -3.154024   -0.337694   -2.843106
     29          1           0       -2.016997   -2.063320   -3.430572
     30          1           0       -4.076659    1.487839   -2.127305
     31          1           0       -2.184906    5.373016    0.940797
     32          1           0       -4.043754   -0.657808   -3.373710
     33          6           0       -0.872987   -0.487151    1.603021
     34          6           0       -0.302228   -2.260988    0.350778
     35          6           0       -0.861250    0.697248    2.336473
     36          6           0       -2.043610   -1.266910    1.463664
     37          6           0        0.393719   -3.194188   -0.431347
     38          6           0       -1.681267   -2.411792    0.651473
     39          6           0       -2.057528    1.095000    2.933721
     40          1           0        0.054123    1.267223    2.457637
     41          6           0       -3.219083   -0.862791    2.090850
     42          6           0       -0.322583   -4.277253   -0.916330
     43          1           0        1.451586   -3.063356   -0.634456
     44          6           0       -2.375042   -3.509110    0.148244
     45          6           0       -3.219392    0.323680    2.822273
     46          1           0       -2.079404    2.014917    3.510384
     47          1           0       -4.116993   -1.470570    2.021405
     48          6           0       -1.691484   -4.433697   -0.636158
     49          1           0        0.186031   -5.025885   -1.515809
     50          1           0       -3.431585   -3.641089    0.360814
     51          1           0       -4.126472    0.643319    3.324386
     52          1           0       -2.220288   -5.295181   -1.032071
     53          7           0        0.137643    1.076845   -0.806060
     54          7           0        0.172352   -1.100589    0.918933
 ---------------------------------------------------------------------

 SCF Done:  E(RM062X) =  -1448.68859700     A.U. after   10 cycles

 Excitation energies and oscillator strengths:

 Excited state symmetry could not be determined.
 Excited State   1:      Singlet-?Sym    2.8946 eV  428.32 nm  f=0.0108  <S**2>=0.000
     119 ->120         0.68971
 This state for optimization and/or second-order correction.
 Total Energy, E(TD-HF/TD-DFT) =  -1448.58222093
 Copying the excited state density for this state as the 1-particle RhoCI density.

 Excited state symmetry could not be determined.
 Excited State   2:      Singlet-?Sym    3.1804 eV  389.84 nm  f=0.0242  <S**2>=0.000
     118 ->120         0.68885

 Excited state symmetry could not be determined.
 Excited State   3:      Singlet-?Sym    3.6027 eV  344.14 nm  f=0.0021  <S**2>=0.000
     117 ->120         0.69500

 Alpha  occ. eigenvalues --  -14.82740 -14.82531 -14.79608 -14.79595 -10.65626
 Alpha  occ. eigenvalues --  -10.65541 -10.65344 -10.65268 -10.62122 -10.62043
 Alpha  occ. eigenvalues --  -10.61607 -10.61598 -10.60028 -10.59941 -10.59719
 Alpha  occ. eigenvalues --  -10.59614 -10.56239 -10.56120 -10.56039 -10.56035
 Alpha  occ. eigenvalues --  -10.55992 -10.55959 -10.55921 -10.55914 -10.55844
 Alpha  occ. eigenvalues --  -10.55821 -10.55812 -10.55688 -10.55670 -10.55642
 Alpha  occ. eigenvalues --  -10.55523 -10.55424 -10.55258 -10.55146 -10.54944
 Alpha  occ. eigenvalues --  -10.54869  -1.13922  -1.11628  -1.05228  -1.03479
 Alpha  occ. eigenvalues --   -1.01813  -0.96817  -0.96233  -0.95836  -0.95517
 Alpha  occ. eigenvalues --   -0.92288  -0.91767  -0.88348  -0.87644  -0.85705
 Alpha  occ. eigenvalues --   -0.85305  -0.83676  -0.82599  -0.81951  -0.81799
 Alpha  occ. eigenvalues --   -0.78815  -0.76957  -0.73313  -0.73037  -0.70042
 Alpha  occ. eigenvalues --   -0.69961  -0.69761  -0.69118  -0.66564  -0.66294
 Alpha  occ. eigenvalues --   -0.66217  -0.63664  -0.62296  -0.61359  -0.60162
 Alpha  occ. eigenvalues --   -0.59740  -0.59004  -0.58468  -0.56344  -0.55893
 Alpha  occ. eigenvalues --   -0.53889  -0.53501  -0.53150  -0.53104  -0.52688
 Alpha  occ. eigenvalues --   -0.52498  -0.51403  -0.51282  -0.50686  -0.50591
 Alpha  occ. eigenvalues --   -0.49329  -0.49244  -0.49176  -0.49102  -0.48637
 Alpha  occ. eigenvalues --   -0.48474  -0.46212  -0.46061  -0.45280  -0.44090
 Alpha  occ. eigenvalues --   -0.43709  -0.43447  -0.43265  -0.43031  -0.42657
 Alpha  occ. eigenvalues --   -0.42231  -0.42201  -0.42123  -0.40702  -0.40600
 Alpha  occ. eigenvalues --   -0.40395  -0.40161  -0.39780  -0.39401  -0.36491
 Alpha  occ. eigenvalues --   -0.34589  -0.34391  -0.34005  -0.31826  -0.30502
 Alpha  occ. eigenvalues --   -0.27369  -0.26644  -0.26414  -0.25061
 Alpha virt. eigenvalues --   -0.08015  -0.03960  -0.00500  -0.00296   0.02721
 Alpha virt. eigenvalues --    0.03546   0.04589   0.05385   0.05720   0.05964
 Alpha virt. eigenvalues --    0.07126   0.07466   0.07717   0.10816   0.11010

 Mulliken charges:
               1
     1  C    0.218394
     2  C    0.235123
     3  C   -0.197561
     4  C    0.130820
     5  C    0.124431
     6  C   -0.180639
     7  H    0.235150
     8  H    0.237899
     9  C    0.235178
    10  N   -0.438797
    11  C    0.231915
    12  N   -0.439104
    13  C    0.288241
    14  C    0.277072
    15  C   -0.185484
    16  C    0.042856
    17  C   -0.167619
    18  C    0.049448
    19  C   -0.173054
    20  H    0.158791
    21  C   -0.191315
    22  C   -0.166506
    23  H    0.159372
    24  C   -0.196716
    25  C   -0.187026
    26  H    0.166589
    27  H    0.170054
    28  C   -0.181678
    29  H    0.165837
    30  H    0.166864
    31  H    0.159988
    32  H    0.159507
    33  C    0.281727
    34  C    0.284047
    35  C   -0.167160
    36  C    0.037445
    37  C   -0.185204
    38  C    0.038226
    39  C   -0.167569
    40  H    0.159492
    41  C   -0.184942
    42  C   -0.175237
    43  H    0.159935
    44  C   -0.181581
    45  C   -0.180776
    46  H    0.165957
    47  H    0.166687
    48  C   -0.185886
    49  H    0.166696
    50  H    0.170032
    51  H    0.161365
    52  H    0.161822
    53  N   -0.716137
    54  N   -0.716966
 Sum of Mulliken charges =  -0.00000

 Dipole moment (field-independent basis, Debye):
    X=             -5.4725    Y=             -0.0329    Z=              0.2178  Tot=              5.4769
 Quadrupole moment (field-independent basis, Debye-Ang):
   XX=           -236.5745   YY=           -193.6623   ZZ=           -206.0875
   XY=              0.1194   XZ=              1.6824   YZ=             13.3540

 Normal termination of Gaussian 16 at Sat Jul 13 22:44:47 2024.
