 Gaussian 16, Revision C.01,
 Gaussian 16:  ES64L-G16RevC.01  3-Jul-2019

 ----------------------------------------------------------------------
 # 6-31g(d) m062x g09default scf=(xqc,maxcycle=64) force guess=read nos
 ymm
 ----------------------------------------------------------------------

 ----------
 Title Card
 ----------
 Symbolic Z-matrix:
 Charge =  0 Multiplicity = 3

                          Input orientation:
 ---------------------------------------------------------------------
 Center     Atomic      Atomic             Coordinates (Angstroms)
 Number     Number       Type             X           Y           Z
 ---------------------------------------------------------------------
      1          6           0        1.408462    0.492371   -0.480465
      2          6           0        1.425199   -0.500316    0.560355
      3          6           0        2.634717   -0.972840    1.019160
      4          6           0        3.846415   -0.494496    0.497479
      5          6           0        3.816506    0.491499   -0.573573
      6          6           0        2.584172    0.973566   -1.018631
      7          1           0        2.652903   -1.742945    1.787122
      8          1           0        2.555888    1.738245   -1.790486
      9          6           0        4.998642    0.965892   -1.199278
     10          7           0        5.947246    1.368250   -1.737774
     11          6           0        5.068959   -0.977504    1.026616
     12          7           0        6.063410   -1.384499    1.471878
     13          6           0       -0.325773    2.249077   -0.279279
     14          6           0       -0.875977    0.474184   -1.531220
     15          6           0        0.371169    3.168702    0.521212
     16          6           0       -1.686232    2.437068   -0.651468
     17          6           0       -0.832879   -0.726486   -2.237163
     18          6           0       -2.039147    1.278576   -1.463634
     19          6           0       -0.327986    4.286882    0.953629
     20          1           0        1.410966    2.998736    0.775736
     21          6           0       -2.356523    3.562881   -0.209879
     22          6           0       -2.007720   -1.126465   -2.884245
     23          1           0        0.081415   -1.304786   -2.298051
     24          6           0       -3.178566    0.878209   -2.135445
     25          6           0       -1.668805    4.483094    0.594589
     26          1           0        0.173012    5.024462    1.570351
     27          1           0       -3.393700    3.737641   -0.475272
     28          6           0       -3.154024   -0.337694   -2.843106
     29          1           0       -2.016997   -2.063320   -3.430572
     30          1           0       -4.076659    1.487839   -2.127305
     31          1           0       -2.184906    5.373016    0.940797
     32          1           0       -4.043754   -0.657808   -3.373710
     33          6           0       -0.872987   -0.487151    1.603021
     34          6           0       -0.302228   -2.260988    0.350778
     35          6           0       -0.861250    0.697248    2.336473
     36          6           0       -2.043610   -1.266910    1.463664
     37          6           0        0.393719   -3.194188   -0.431347
     38          6           0       -1.681267   -2.411792    0.651473
     39          6           0       -2.057528    1.095000    2.933721
     40          1           0        0.054123    1.267223    2.457637
     41          6           0       -3.219083   -0.862791    2.090850
     42          6           0       -0.322583   -4.277253   -0.916330
     43          1           0        1.451586   -3.063356   -0.634456
     44          6           0       -2.375042   -3.509110    0.148244
     45          6           0       -3.219392    0.323680    2.822273
     46          1           0       -2.079404    2.014917    3.510384
     47          1           0       -4.116993   -1.470570    2.021405
     48          6           0       -1.691484   -4.433697   -0.636158
     49          1           0        0.186031   -5.025885   -1.515809
     50          1           0       -3.431585   -3.641089    0.360814
     51          1           0       -4.126472    0.643319    3.324386
     52          1           0       -2.220288   -5.295181   -1.032071
     53          7           0        0.137643    1.076845   -0.806060
     54          7           0        0.172352   -1.100589    0.918933
 ---------------------------------------------------------------------

 SCF Done:  E(UM062X) =  -1448.58168409     A.U. after   20 cycles

 Alpha  occ. eigenvalues --  -14.86546 -14.84868 -14.72980 -14.72912 -10.62482
 Alpha  occ. eigenvalues --  -10.62117 -10.61529 -10.61238 -10.60181 -10.60128
 Alpha  occ. eigenvalues --  -10.59427 -10.59205 -10.59059 -10.59041 -10.59006
 Alpha  occ. eigenvalues --  -10.58913 -10.58847 -10.58511 -10.58365 -10.58282
 Alpha  occ. eigenvalues --  -10.58273 -10.58038 -10.58036 -10.58022 -10.57984
 Alpha  occ. eigenvalues --  -10.57818 -10.57692 -10.57656 -10.57621 -10.57589
 Alpha  occ. eigenvalues --  -10.57460 -10.57380 -10.57331 -10.57225 -10.55541
 Alpha  occ. eigenvalues --  -10.55446  -1.15810  -1.13440  -1.00692  -0.98824
 Alpha  occ. eigenvalues --   -0.98768  -0.98178  -0.97745  -0.97600  -0.95741
 Alpha  occ. eigenvalues --   -0.91831  -0.90995  -0.88556  -0.88178  -0.87645
 Alpha  occ. eigenvalues --   -0.87446  -0.84956  -0.84566  -0.83780  -0.83145
 Alpha  occ. eigenvalues --   -0.77716  -0.76157  -0.73853  -0.73285  -0.72679
 Alpha  occ. eigenvalues --   -0.71602  -0.69597  -0.69308  -0.68962  -0.68211
 Alpha  occ. eigenvalues --   -0.65091  -0.64091  -0.62815  -0.61862  -0.61743
 Alpha  occ. eigenvalues --   -0.60696  -0.59432  -0.58687  -0.56186  -0.55997
 Alpha  occ. eigenvalues --   -0.55087  -0.55047  -0.54348  -0.54022  -0.53379
 Alpha  occ. eigenvalues --   -0.53141  -0.53013  -0.52560  -0.52222  -0.51812
 Alpha  occ. eigenvalues --   -0.51495  -0.51201  -0.50736  -0.49116  -0.47380
 Alpha  occ. eigenvalues --   -0.46655  -0.46409  -0.45968  -0.45719  -0.45183
 Alpha  occ. eigenvalues --   -0.44979  -0.44666  -0.43574  -0.43017  -0.42603
 Alpha  occ. eigenvalues --   -0.42463  -0.41882  -0.41630  -0.40557  -0.40444
 Alpha  occ. eigenvalues --   -0.40407  -0.39561  -0.37461  -0.36585  -0.36496
 Alpha  occ. eigenvalues --   -0.36391  -0.34630  -0.33175  -0.32949  -0.30880
 Alpha  occ. eigenvalues --   -0.30090  -0.29236  -0.28610  -0.27694  -0.15190
 Alpha virt. eigenvalues --   -0.03305  -0.02473  -0.00098   0.00262   0.01332
 Alpha virt. eigenvalues --    0.02771   0.03503   0.04739   0.05540   0.09139
 Alpha virt. eigenvalues --    0.10440   0.11431   0.11564   0.12071   0.12215

  Beta  occ. eigenvalues --  -14.86222 -14.84659 -14.72796 -14.72713 -10.62498
  Beta  occ. eigenvalues --  -10.62138 -10.61527 -10.61246 -10.59949 -10.59891
  Beta  occ. eigenvalues --  -10.59374 -10.59132 -10.59028 -10.59023 -10.58989
  Beta  occ. eigenvalues --  -10.58904 -10.58775 -10.58544 -10.58345 -10.58268
  Beta  occ. eigenvalues --  -10.58239 -10.58007 -10.57999 -10.57994 -10.57993
  Beta  occ. eigenvalues --  -10.57818 -10.57741 -10.57698 -10.57593 -10.57588
  Beta  occ. eigenvalues --  -10.57542 -10.57206 -10.57136 -10.57072 -10.55608
  Beta  occ. eigenvalues --  -10.55519  -1.14941  -1.12764  -1.00219  -0.98625
  Beta  occ. eigenvalues --   -0.98309  -0.97838  -0.97628  -0.97027  -0.95247
  Beta  occ. eigenvalues --   -0.91532  -0.90734  -0.88310  -0.87680  -0.87311
  Beta  occ. eigenvalues --   -0.87215  -0.84879  -0.84135  -0.83700  -0.82577
  Beta  occ. eigenvalues --   -0.77216  -0.75892  -0.73448  -0.72954  -0.72356
  Beta  occ. eigenvalues --   -0.71377  -0.69252  -0.69133  -0.68645  -0.68099
  Beta  occ. eigenvalues --   -0.64694  -0.63778  -0.62578  -0.61603  -0.61555
  Beta  occ. eigenvalues --   -0.60482  -0.58339  -0.58243  -0.55988  -0.55791
  Beta  occ. eigenvalues --   -0.54893  -0.54888  -0.53845  -0.53813  -0.52948
  Beta  occ. eigenvalues --   -0.52725  -0.52622  -0.52192  -0.52071  -0.51679
  Beta  occ. eigenvalues --   -0.51346  -0.51099  -0.50627  -0.48649  -0.46344
  Beta  occ. eigenvalues --   -0.46099  -0.45884  -0.45601  -0.45348  -0.44946
  Beta  occ. eigenvalues --   -0.44681  -0.44268  -0.43420  -0.42492  -0.42375
  Beta  occ. eigenvalues --   -0.41834  -0.41354  -0.40877  -0.39934  -0.39769
  Beta  occ. eigenvalues --   -0.38749  -0.37639  -0.36900  -0.36263  -0.36123
  Beta  occ. eigenvalues --   -0.36046  -0.33605  -0.31928  -0.31437  -0.30007
  Beta  occ. eigenvalues --   -0.28846  -0.27058  -0.26232
  Beta virt. eigenvalues --   -0.18224  -0.02801  -0.02103  -0.01258   0.00463
  Beta virt. eigenvalues --    0.00731   0.01620   0.03862   0.04219   0.05287
  Beta virt. eigenvalues --    0.05874   0.10735   0.11290   0.11534   0.12040

 Mulliken charges and spin densities:
               1          2
     1  C    0.150515   0.273899
     2  C    0.177848   0.271262
     3  C   -0.206203  -0.118912
     4  C    0.085512   0.335029
     5  C    0.079670   0.305169
     6  C   -0.190983  -0.113620
     7  H    0.199714   0.003181
     8  H    0.200019   0.002824
     9  C    0.193108  -0.068825
    10  N   -0.490855   0.160821
    11  C    0.189213  -0.075615
    12  N   -0.490818   0.174315
    13  C    0.283360  -0.032218
    14  C    0.273295  -0.032989
    15  C   -0.161524   0.110275
    16  C    0.054607   0.077053
    17  C   -0.152001   0.099661
    18  C    0.054118   0.014144
    19  C   -0.177568  -0.050384
    20  H    0.210448  -0.005458
    21  C   -0.190932  -0.030402
    22  C   -0.166840  -0.023100
    23  H    0.198130  -0.004540
    24  C   -0.190766   0.024458
    25  C   -0.168620   0.120178
    26  H    0.187352   0.001557
    27  H    0.182569   0.000969
    28  C   -0.169809   0.067694
    29  H    0.182163   0.000368
    30  H    0.181393  -0.001554
    31  H    0.181141  -0.006018
    32  H    0.177950  -0.003645
    33  C    0.276249  -0.017245
    34  C    0.278701  -0.012688
    35  C   -0.167548   0.055279
    36  C    0.035688   0.000411
    37  C   -0.174600   0.066901
    38  C    0.042054   0.058748
    39  C   -0.169133  -0.005128
    40  H    0.185501  -0.002741
    41  C   -0.182179   0.023902
    42  C   -0.179832  -0.032026
    43  H    0.202222  -0.003436
    44  C   -0.184660  -0.024803
    45  C   -0.176751   0.030187
    46  H    0.173686  -0.000156
    47  H    0.175032  -0.001329
    48  C   -0.175795   0.077783
    49  H    0.180968   0.001033
    50  H    0.175803   0.000990
    51  H    0.171335  -0.001713
    52  H    0.174535  -0.003877
    53  N   -0.665138   0.194881
    54  N   -0.681342   0.119450
 Sum of Mulliken charges =  -0.00000   2.00000

 Dipole moment (field-independent basis, Debye):
    X=            -16.7709    Y=              0.9610    Z=             -0.2886  Tot=             16.8009
 Quadrupole moment (field-independent basis, Debye-Ang):
   XX=           -271.0382   YY=           -177.5361   ZZ=           -201.9798
   XY=             -0.9595   XZ=              3.9410   YZ=             18.4601

 Normal termination of Gaussian 16 at Sat Jul 13 22:35:16 2024.
