                         Program Version 5.0.1 -  RELEASE  -
|  1> %pal nprocs 28 end
|  2> %maxcore 1000
|  3> ! b3lyp 6-31g(d) engrad
|  4> !moread
|  5>  %moinp "JOBS/a.gbw"
|  6>
|  7>
|  8>  *xyz 0 3
|  9> c  1.40905202  0.37147736  0.0
| 10> h  1.76570645  -0.63733264  0.0
| 11> h  0.33905202  0.37149055  0.0
| 12> *
| 13> %tddft sf true
| 14> nroots 2
| 15> iroot 0
| 16> end
| 17>
| 18>
| 19>                          ****END OF INPUT****

CARTESIAN COORDINATES (ANGSTROEM)
---------------------------------
  C      1.409052    0.371477    0.000000
  H      1.765706   -0.637333    0.000000
  H      0.339052    0.371491    0.000000

 Total Charge           Charge          ....    0
 Multiplicity           Mult            ....    3
 Number of Electrons    NEL             ....    8
 Basis Dimension        Dim             ....   18

ORBITAL ENERGIES
----------------
                 SPIN UP ORBITALS
  NO   OCC          E(Eh)            E(eV)
   0   1.0000     -10.215381      -277.9747
   1   1.0000      -0.680926       -18.5289
   2   1.0000      -0.419823       -11.4240
   3   1.0000      -0.306328        -8.3356
   4   1.0000      -0.236570        -6.4374
   5   0.0000       0.134478         3.6593
   6   0.0000       0.174149         4.7388
   7   0.0000       0.527268        14.3477
   8   0.0000       0.528709        14.3869
   9   0.0000       0.529222        14.4009

                 SPIN DOWN ORBITALS
  NO   OCC          E(Eh)            E(eV)
   0   1.0000     -10.185904      -277.1725
   1   1.0000      -0.609955       -16.5977
   2   1.0000      -0.395920       -10.7735
   3   0.0000      -0.095347        -2.5945
   4   0.0000      -0.035510        -0.9663
   5   0.0000       0.153996         4.1905
   6   0.0000       0.199524         5.4293
   7   0.0000       0.546951        14.8833

MULLIKEN ATOMIC CHARGES AND SPIN POPULATIONS
--------------------------------------------
   0 C :   -0.324331    2.068716
   1 H :    0.162169   -0.034365
   2 H :    0.162162   -0.034351
Sum of atomic charges         :    0.0000000

LOEWDIN ATOMIC CHARGES AND SPIN POPULATIONS
-------------------------------------------
   0 C :   -0.253083    2.022455
   1 H :    0.126545   -0.011231
   2 H :    0.126538   -0.011224

  Mayer bond orders larger than 0.100000
B(  0-C ,  1-H ) :   0.9412 B(  0-C ,  2-H ) :   0.9412

-----------------------------------------------------------------------------
         ABSORPTION SPECTRUM VIA TRANSITION ELECTRIC DIPOLE MOMENTS
-----------------------------------------------------------------------------
State   Energy    Wavelength  fosc         T2        TX        TY        TZ
        (cm-1)      (nm)                 (au**2)    (au)      (au)      (au)
-----------------------------------------------------------------------------
   2    9654.1   1035.8   0.000467666   0.01595  -0.00000  -0.00000   0.12628

FINAL SINGLE POINT ENERGY       -39.110699207633

DIPOLE MOMENT
-------------
                                X             Y             Z
Electronic contribution:      0.40810       0.57711      -0.00000
Nuclear contribution   :     -0.57306      -0.81041       0.00000
                        -----------------------------------------
Total Dipole Moment    :     -0.16495      -0.23329      -0.00000
                        -----------------------------------------
Magnitude (a.u.)       :      0.28572
Magnitude (Debye)      :      0.72624

Rotational constants in cm-1:    25.588559    10.955445     7.671137
Rotational constants in MHz : 767125.690294 328435.973689 229974.889882

                             ****ORCA TERMINATED NORMALLY****
TOTAL RUN TIME: 0 days 0 hours 0 minutes 2 seconds 498 msec
