                         Program Version 5.0.1 -  RELEASE  -
|  1> %pal nprocs 28 end
|  2> %maxcore 1000
|  3> ! b3lyp 6-31g(d) engrad
|  4> !moread
|  5>  %moinp "JOBS/a.gbw"
|  6>
|  7>
|  8>  *xyz 0 3
|  9> c  1.475639884655443  0.6305315235203777  -1.7016343274604845e-07
| 10> h  1.6615580330701984  -0.5468271199078961  -3.0608252800590754e-07
| 11> h  0.35086945552701987  0.2335511250931045  -2.674279298313359e-07
| 12> *
| 13> %tddft sf true
| 14> nroots 2
| 15> iroot 0
| 16> end
| 17>
| 18>
| 19>                          ****END OF INPUT****

CARTESIAN COORDINATES (ANGSTROEM)
---------------------------------
  C      1.475640    0.630532   -0.000000
  H      1.661558   -0.546827   -0.000000
  H      0.350869    0.233551   -0.000000

 Total Charge           Charge          ....    0
 Multiplicity           Mult            ....    3
 Number of Electrons    NEL             ....    8
 Basis Dimension        Dim             ....   18

ORBITAL ENERGIES
----------------
                 SPIN UP ORBITALS
  NO   OCC          E(Eh)            E(eV)
   0   1.0000     -10.248339      -278.8715
   1   1.0000      -0.669031       -18.2053
   2   1.0000      -0.352939        -9.6040
   3   1.0000      -0.347853        -9.4656
   4   1.0000      -0.244033        -6.6405
   5   0.0000       0.099491         2.7073
   6   0.0000       0.108898         2.9633
   7   0.0000       0.519345        14.1321
   8   0.0000       0.528551        14.3826
   9   0.0000       0.544381        14.8134

                 SPIN DOWN ORBITALS
  NO   OCC          E(Eh)            E(eV)
   0   1.0000     -10.217356      -278.0284
   1   1.0000      -0.601645       -16.3716
   2   1.0000      -0.320468        -8.7204
   3   0.0000      -0.144997        -3.9456
   4   0.0000      -0.037174        -1.0116
   5   0.0000       0.126601         3.4450
   6   0.0000       0.142855         3.8873
   7   0.0000       0.561652        15.2833

MULLIKEN ATOMIC CHARGES AND SPIN POPULATIONS
--------------------------------------------
   0 C :   -0.282311    2.007787
   1 H :    0.141328   -0.003889
   2 H :    0.140983   -0.003898
Sum of atomic charges         :    0.0000000

LOEWDIN ATOMIC CHARGES AND SPIN POPULATIONS
-------------------------------------------
   0 C :   -0.248939    1.999603
   1 H :    0.124535    0.000208
   2 H :    0.124404    0.000189

  Mayer bond orders larger than 0.100000
B(  0-C ,  1-H ) :   0.9535 B(  0-C ,  2-H ) :   0.9537

-----------------------------------------------------------------------------
         ABSORPTION SPECTRUM VIA TRANSITION ELECTRIC DIPOLE MOMENTS
-----------------------------------------------------------------------------
State   Energy    Wavelength  fosc         T2        TX        TY        TZ
        (cm-1)      (nm)                 (au**2)    (au)      (au)      (au)
-----------------------------------------------------------------------------
   2   19303.5    518.0   0.000387989   0.00662  -0.00000  -0.00000   0.08134

FINAL SINGLE POINT ENERGY       -39.056525095565

DIPOLE MOMENT
-------------
                                X             Y             Z
Electronic contribution:      0.59266       0.99285       0.00000
Nuclear contribution   :     -0.75422      -1.26473      -0.00000
                        -----------------------------------------
Total Dipole Moment    :     -0.16156      -0.27188      -0.00000
                        -----------------------------------------
Magnitude (a.u.)       :      0.31625
Magnitude (Debye)      :      0.80385

Rotational constants in cm-1:    14.374434    11.625549     6.427338
Rotational constants in MHz : 430934.680729 348525.205625 192686.757640

                             ****ORCA TERMINATED NORMALLY****
TOTAL RUN TIME: 0 days 0 hours 0 minutes 2 seconds 377 msec
