                         Program Version 5.0.1 -  RELEASE  -
|  1> %pal nprocs 28 end
|  2> %maxcore 1000
|  3> ! b3lyp 6-31g(d) engrad
|  4> !moread
|  5>  %moinp "JOBS/a.gbw"
|  6>
|  7>
|  8>  *xyz 0 3
|  9> c  1.4769902850794374  0.6286962178747458  -2.233227752804534e-07
| 10> h  1.66093314843506  -0.548092371047453  -2.8276152060345505e-07
| 11> h  0.35195878122000834  0.2342499588456932  -2.471241181510516e-07
| 12> *
| 13> %tddft sf true
| 14> nroots 2
| 15> iroot 0
| 16> end
| 17>
| 18>
| 19>                          ****END OF INPUT****

CARTESIAN COORDINATES (ANGSTROEM)
---------------------------------
  C      1.476990    0.628696   -0.000000
  H      1.660933   -0.548092   -0.000000
  H      0.351959    0.234250   -0.000000

 Total Charge           Charge          ....    0
 Multiplicity           Mult            ....    3
 Number of Electrons    NEL             ....    8
 Basis Dimension        Dim             ....   18

ORBITAL ENERGIES
----------------
                 SPIN UP ORBITALS
  NO   OCC          E(Eh)            E(eV)
   0   1.0000     -10.248197      -278.8676
   1   1.0000      -0.669186       -18.2095
   2   1.0000      -0.352906        -9.6031
   3   1.0000      -0.347993        -9.4694
   4   1.0000      -0.244018        -6.6401
   5   0.0000       0.099697         2.7129
   6   0.0000       0.109187         2.9711
   7   0.0000       0.519378        14.1330
   8   0.0000       0.528555        14.3827
   9   0.0000       0.544218        14.8089

                 SPIN DOWN ORBITALS
  NO   OCC          E(Eh)            E(eV)
   0   1.0000     -10.217213      -278.0245
   1   1.0000      -0.601827       -16.3765
   2   1.0000      -0.320613        -8.7243
   3   0.0000      -0.144888        -3.9426
   4   0.0000      -0.037167        -1.0114
   5   0.0000       0.126759         3.4493
   6   0.0000       0.143119         3.8945
   7   0.0000       0.561476        15.2785

MULLIKEN ATOMIC CHARGES AND SPIN POPULATIONS
--------------------------------------------
   0 C :   -0.282525    2.008102
   1 H :    0.141491   -0.004010
   2 H :    0.141034   -0.004092
Sum of atomic charges         :   -0.0000000

LOEWDIN ATOMIC CHARGES AND SPIN POPULATIONS
-------------------------------------------
   0 C :   -0.249027    1.999762
   1 H :    0.124600    0.000156
   2 H :    0.124427    0.000082

  Mayer bond orders larger than 0.100000
B(  0-C ,  1-H ) :   0.9535 B(  0-C ,  2-H ) :   0.9537

-----------------------------------------------------------------------------
         ABSORPTION SPECTRUM VIA TRANSITION ELECTRIC DIPOLE MOMENTS
-----------------------------------------------------------------------------
State   Energy    Wavelength  fosc         T2        TX        TY        TZ
        (cm-1)      (nm)                 (au**2)    (au)      (au)      (au)
-----------------------------------------------------------------------------
   2   19288.4    518.4   0.000393608   0.00672   0.00000   0.00000  -0.08196

FINAL SINGLE POINT ENERGY       -39.056699386174

DIPOLE MOMENT
-------------
                                X             Y             Z
Electronic contribution:      0.59406       0.99058       0.00000
Nuclear contribution   :     -0.75601      -1.26223      -0.00000
                        -----------------------------------------
Total Dipole Moment    :     -0.16195      -0.27165      -0.00000
                        -----------------------------------------
Magnitude (a.u.)       :      0.31627
Magnitude (Debye)      :      0.80388

Rotational constants in cm-1:    14.383249    11.644801     6.434983
Rotational constants in MHz : 431198.947170 349102.339679 192915.946521

                             ****ORCA TERMINATED NORMALLY****
TOTAL RUN TIME: 0 days 0 hours 0 minutes 2 seconds 357 msec
