                         Program Version 5.0.1 -  RELEASE  -
|  1> %pal nprocs 28 end
|  2> %maxcore 1000
|  3> ! b3lyp 6-31g(d) engrad
|  4> !moread
|  5>  %moinp "JOBS/b.gbw"
|  6>
|  7>
|  8>  *xyz 0 3
|  9> c  1.4841217421700414  0.6183343662561748  -2.764623360181896e-07
| 10> h  1.6561527860094336  -0.5607423644776254  -2.2586938167488253e-07
| 11> h  0.35513858654821956  0.23475529401676035  -2.0542572804461944e-07
| 12> *
| 13> %tddft sf true
| 14> nroots 2
| 15> iroot 1
| 16> end
| 17>
| 18>
| 19>                          ****END OF INPUT****

CARTESIAN COORDINATES (ANGSTROEM)
---------------------------------
  C      1.484122    0.618334   -0.000000
  H      1.656153   -0.560742   -0.000000
  H      0.355139    0.234755   -0.000000

 Total Charge           Charge          ....    0
 Multiplicity           Mult            ....    3
 Number of Electrons    NEL             ....    8
 Basis Dimension        Dim             ....   18

ORBITAL ENERGIES
----------------
                 SPIN UP ORBITALS
  NO   OCC          E(Eh)            E(eV)
   0   1.0000     -10.248266      -278.8695
   1   1.0000      -0.669126       -18.2079
   2   1.0000      -0.352944        -9.6041
   3   1.0000      -0.347901        -9.4669
   4   1.0000      -0.244028        -6.6403
   5   0.0000       0.099595         2.7101
   6   0.0000       0.109047         2.9673
   7   0.0000       0.519361        14.1325
   8   0.0000       0.528552        14.3826
   9   0.0000       0.544292        14.8109

                 SPIN DOWN ORBITALS
  NO   OCC          E(Eh)            E(eV)
   0   1.0000     -10.217282      -278.0264
   1   1.0000      -0.601760       -16.3747
   2   1.0000      -0.320516        -8.7217
   3   0.0000      -0.144959        -3.9445
   4   0.0000      -0.037170        -1.0114
   5   0.0000       0.126680         3.4471
   6   0.0000       0.142992         3.8910
   7   0.0000       0.561557        15.2807

-----------------------------------------------------------------------------
         ABSORPTION SPECTRUM VIA TRANSITION ELECTRIC DIPOLE MOMENTS
-----------------------------------------------------------------------------
State   Energy    Wavelength  fosc         T2        TX        TY        TZ
        (cm-1)      (nm)                 (au**2)    (au)      (au)      (au)
-----------------------------------------------------------------------------
   2   19299.4    518.1   0.000390334   0.00666  -0.00000  -0.00000  -0.08160

FINAL SINGLE POINT ENERGY       -39.056592552246

MULLIKEN ATOMIC CHARGES AND SPIN DENSITIES
------------------------------------------
   0 C :   -0.229149    0.000815
   1 H :    0.114503   -0.000927
   2 H :    0.114646    0.000112
Sum of atomic charges       :   -0.0000000

LOEWDIN ATOMIC CHARGES AND SPIN DENSITIES
-----------------------------------------
   0 C :   -0.213880   -0.007580
   1 H :    0.106777    0.003394
   2 H :    0.107103    0.004186

  Mayer bond orders larger than 0.100000
B(  0-C ,  1-H ) :   0.9026 B(  0-C ,  2-H ) :   0.9012

DIPOLE MOMENT
-------------
                                X             Y             Z
Electronic contribution:      0.38726       0.63112      -0.00000
Nuclear contribution   :     -0.76876      -1.25534       0.00000
                        -----------------------------------------
Total Dipole Moment    :     -0.38150      -0.62422       0.00000
                        -----------------------------------------
Magnitude (a.u.)       :      0.73157
Magnitude (Debye)      :      1.85950

Rotational constants in cm-1:    14.383335    11.633641     6.431591
Rotational constants in MHz : 431201.534800 348767.768113 192814.250942

                             ****ORCA TERMINATED NORMALLY****
TOTAL RUN TIME: 0 days 0 hours 0 minutes 3 seconds 690 msec
