                         Program Version 5.0.1 -  RELEASE  -
|  1> %pal nprocs 28 end
|  2> %maxcore 1000
|  3> ! b3lyp 6-31g(d) engrad
|  4> !moread
|  5>  %moinp "JOBS/a.gbw"
|  6>
|  7>
|  8>  *xyz 0 3
|  9> c  1.4824624016535841  0.6211436355413159  -2.6161279077163604e-07
| 10> h  1.657528904937982  -0.5572968922132685  -2.41047327071622e-07
| 11> h  0.35451686915242897  0.23497527028028703  -2.183111890167213e-07
| 12> *
| 13> %tddft sf true
| 14> nroots 2
| 15> iroot 0
| 16> end
| 17>
| 18>
| 19>                          ****END OF INPUT****

CARTESIAN COORDINATES (ANGSTROEM)
---------------------------------
  C      1.482462    0.621144   -0.000000
  H      1.657529   -0.557297   -0.000000
  H      0.354517    0.234975   -0.000000

 Total Charge           Charge          ....    0
 Multiplicity           Mult            ....    3
 Number of Electrons    NEL             ....    8
 Basis Dimension        Dim             ....   18

ORBITAL ENERGIES
----------------
                 SPIN UP ORBITALS
  NO   OCC          E(Eh)            E(eV)
   0   1.0000     -10.248232      -278.8686
   1   1.0000      -0.669155       -18.2086
   2   1.0000      -0.352923        -9.6035
   3   1.0000      -0.347950        -9.4682
   4   1.0000      -0.244022        -6.6402
   5   0.0000       0.099647         2.7115
   6   0.0000       0.109116         2.9692
   7   0.0000       0.519369        14.1328
   8   0.0000       0.528553        14.3827
   9   0.0000       0.544255        14.8099

                 SPIN DOWN ORBITALS
  NO   OCC          E(Eh)            E(eV)
   0   1.0000     -10.217248      -278.0255
   1   1.0000      -0.601791       -16.3756
   2   1.0000      -0.320567        -8.7231
   3   0.0000      -0.144923        -3.9436
   4   0.0000      -0.037169        -1.0114
   5   0.0000       0.126720         3.4482
   6   0.0000       0.143055         3.8927
   7   0.0000       0.561517        15.2796

MULLIKEN ATOMIC CHARGES AND SPIN POPULATIONS
--------------------------------------------
   0 C :   -0.282474    2.008029
   1 H :    0.141411   -0.004022
   2 H :    0.141063   -0.004007
Sum of atomic charges         :    0.0000000

LOEWDIN ATOMIC CHARGES AND SPIN POPULATIONS
-------------------------------------------
   0 C :   -0.249014    1.999727
   1 H :    0.124571    0.000138
   2 H :    0.124443    0.000135

  Mayer bond orders larger than 0.100000
B(  0-C ,  1-H ) :   0.9535 B(  0-C ,  2-H ) :   0.9537

-----------------------------------------------------------------------------
         ABSORPTION SPECTRUM VIA TRANSITION ELECTRIC DIPOLE MOMENTS
-----------------------------------------------------------------------------
State   Energy    Wavelength  fosc         T2        TX        TY        TZ
        (cm-1)      (nm)                 (au**2)    (au)      (au)      (au)
-----------------------------------------------------------------------------
   2   19293.6    518.3   0.000391708   0.00668   0.00000   0.00000   0.08175

FINAL SINGLE POINT ENERGY       -39.056646281438

DIPOLE MOMENT
-------------
                                X             Y             Z
Electronic contribution:      0.60141       0.98653      -0.00000
Nuclear contribution   :     -0.76548      -1.25691       0.00000
                        -----------------------------------------
Total Dipole Moment    :     -0.16408      -0.27039       0.00000
                        -----------------------------------------
Magnitude (a.u.)       :      0.31627
Magnitude (Debye)      :      0.80391

Rotational constants in cm-1:    14.382837    11.639431     6.433261
Rotational constants in MHz : 431186.616298 348941.357830 192864.309907

                             ****ORCA TERMINATED NORMALLY****
TOTAL RUN TIME: 0 days 0 hours 0 minutes 2 seconds 362 msec
