                         Program Version 5.0.1 -  RELEASE  -
|  1> %pal nprocs 28 end
|  2> %maxcore 1000
|  3> ! b3lyp 6-31g(d) engrad
|  4> !moread
|  5>  %moinp "JOBS/a.gbw"
|  6>
|  7>
|  8>  *xyz 0 3
|  9> c  1.4493153622051593  0.42939545646227634  4.5078159819973855e-10
| 10> h  1.7750520811034176  -0.6865826519912867  -1.6774493994658214e-10
| 11> h  0.28952500973217044  0.3637673863901241  -1.1227924389434488e-10
| 12> *
| 13> %tddft sf true
| 14> nroots 2
| 15> iroot 0
| 16> end
| 17>
| 18>
| 19>                          ****END OF INPUT****

CARTESIAN COORDINATES (ANGSTROEM)
---------------------------------
  C      1.449315    0.429395    0.000000
  H      1.775052   -0.686583   -0.000000
  H      0.289525    0.363767   -0.000000

 Total Charge           Charge          ....    0
 Multiplicity           Mult            ....    3
 Number of Electrons    NEL             ....    8
 Basis Dimension        Dim             ....   18

ORBITAL ENERGIES
----------------
                 SPIN UP ORBITALS
  NO   OCC          E(Eh)            E(eV)
   0   1.0000     -10.235069      -278.5104
   1   1.0000      -0.661869       -18.0104
   2   1.0000      -0.393024       -10.6947
   3   1.0000      -0.315779        -8.5928
   4   1.0000      -0.238278        -6.4839
   5   0.0000       0.110453         3.0056
   6   0.0000       0.137407         3.7390
   7   0.0000       0.524361        14.2686
   8   0.0000       0.529715        14.4143
   9   0.0000       0.549449        14.9513

                 SPIN DOWN ORBITALS
  NO   OCC          E(Eh)            E(eV)
   0   1.0000     -10.205377      -277.7024
   1   1.0000      -0.589290       -16.0354
   2   1.0000      -0.368656       -10.0316
   3   0.0000      -0.110218        -2.9992
   4   0.0000      -0.035718        -0.9719
   5   0.0000       0.134240         3.6529
   6   0.0000       0.167420         4.5557
   7   0.0000       0.566702        15.4207

MULLIKEN ATOMIC CHARGES AND SPIN POPULATIONS
--------------------------------------------
   0 C :   -0.302235    2.030902
   1 H :    0.151003   -0.015432
   2 H :    0.151232   -0.015470
Sum of atomic charges         :    0.0000000

LOEWDIN ATOMIC CHARGES AND SPIN POPULATIONS
-------------------------------------------
   0 C :   -0.246789    2.006515
   1 H :    0.123370   -0.003255
   2 H :    0.123419   -0.003259

  Mayer bond orders larger than 0.100000
B(  0-C ,  1-H ) :   0.9406 B(  0-C ,  2-H ) :   0.9404

-----------------------------------------------------------------------------
         ABSORPTION SPECTRUM VIA TRANSITION ELECTRIC DIPOLE MOMENTS
-----------------------------------------------------------------------------
State   Energy    Wavelength  fosc         T2        TX        TY        TZ
        (cm-1)      (nm)                 (au**2)    (au)      (au)      (au)
-----------------------------------------------------------------------------
   2   12299.8    813.0   0.000269046   0.00720   0.00000   0.00000   0.08486

FINAL SINGLE POINT ENERGY       -39.100216635316

DIPOLE MOMENT
-------------
                                X             Y             Z
Electronic contribution:      0.50017       0.70931       0.00000
Nuclear contribution   :     -0.67003      -0.94923      -0.00000
                        -----------------------------------------
Total Dipole Moment    :     -0.16985      -0.23992      -0.00000
                        -----------------------------------------
Magnitude (a.u.)       :      0.29396
Magnitude (Debye)      :      0.74719

Rotational constants in cm-1:    18.673444    10.104961     6.556806
Rotational constants in MHz : 559815.755751 302939.116406 196568.105114

                             ****ORCA TERMINATED NORMALLY****
TOTAL RUN TIME: 0 days 0 hours 0 minutes 2 seconds 408 msec
