                         Program Version 5.0.1 -  RELEASE  -
|  1> %pal nprocs 28 end
|  2> %maxcore 1000
|  3> ! b3lyp 6-31g(d) engrad
|  4> !moread
|  5>  %moinp "JOBS/b.gbw"
|  6>
|  7>
|  8>  *xyz 0 3
|  9> c  1.4948470933500553  0.49472405823350685  2.4136420970242955e-10
| 10> h  1.738148914974475  -0.7079070172219543  3.10378787905139e-11
| 11> h  0.2811124269329286  0.32167592077796525  2.2306102212134542e-10
| 12> *
| 13> %tddft sf true
| 14> nroots 2
| 15> iroot 1
| 16> end
| 17>
| 18>
| 19>                          ****END OF INPUT****

CARTESIAN COORDINATES (ANGSTROEM)
---------------------------------
  C      1.494847    0.494724    0.000000
  H      1.738149   -0.707907    0.000000
  H      0.281112    0.321676    0.000000

 Total Charge           Charge          ....    0
 Multiplicity           Mult            ....    3
 Number of Electrons    NEL             ....    8
 Basis Dimension        Dim             ....   18

ORBITAL ENERGIES
----------------
                 SPIN UP ORBITALS
  NO   OCC          E(Eh)            E(eV)
   0   1.0000     -10.249937      -278.9150
   1   1.0000      -0.652538       -17.7564
   2   1.0000      -0.368186       -10.0189
   3   1.0000      -0.330248        -8.9865
   4   1.0000      -0.241084        -6.5602
   5   0.0000       0.093979         2.5573
   6   0.0000       0.106110         2.8874
   7   0.0000       0.520390        14.1605
   8   0.0000       0.529064        14.3966
   9   0.0000       0.558447        15.1961

                 SPIN DOWN ORBITALS
  NO   OCC          E(Eh)            E(eV)
   0   1.0000     -10.219944      -278.0988
   1   1.0000      -0.579471       -15.7682
   2   1.0000      -0.342615        -9.3230
   3   0.0000      -0.129190        -3.5154
   4   0.0000      -0.036789        -1.0011
   5   0.0000       0.121704         3.3117
   6   0.0000       0.139708         3.8017
   7   0.0000       0.575891        15.6708

-----------------------------------------------------------------------------
         ABSORPTION SPECTRUM VIA TRANSITION ELECTRIC DIPOLE MOMENTS
-----------------------------------------------------------------------------
State   Energy    Wavelength  fosc         T2        TX        TY        TZ
        (cm-1)      (nm)                 (au**2)    (au)      (au)      (au)
-----------------------------------------------------------------------------
   2   15603.5    640.9   0.000095714   0.00202  -0.00000  -0.00000   0.04494

FINAL SINGLE POINT ENERGY       -39.062861508855

MULLIKEN ATOMIC CHARGES AND SPIN DENSITIES
------------------------------------------
   0 C :   -0.235351    0.012790
   1 H :    0.117534   -0.006227
   2 H :    0.117816   -0.006563
Sum of atomic charges       :   -0.0000000

LOEWDIN ATOMIC CHARGES AND SPIN DENSITIES
-----------------------------------------
   0 C :   -0.206141    0.001788
   1 H :    0.103037   -0.000776
   2 H :    0.103105   -0.001013

  Mayer bond orders larger than 0.100000
B(  0-C ,  1-H ) :   0.9028 B(  0-C ,  2-H ) :   0.9030

DIPOLE MOMENT
-------------
                                X             Y             Z
Electronic contribution:      0.36973       0.52564       0.00000
Nuclear contribution   :     -0.77959      -1.10514      -0.00000
                        -----------------------------------------
Total Dipole Moment    :     -0.40986      -0.57949       0.00000
                        -----------------------------------------
Magnitude (a.u.)       :      0.70978
Magnitude (Debye)      :      1.80413

Rotational constants in cm-1:    13.782170    10.508224     5.962280
Rotational constants in MHz : 413179.059414 315028.627899 178744.655449

                             ****ORCA TERMINATED NORMALLY****
TOTAL RUN TIME: 0 days 0 hours 0 minutes 3 seconds 740 msec
