                         Program Version 5.0.1 -  RELEASE  -
|  1> %pal nprocs 28 end
|  2> %maxcore 1000
|  3> ! b3lyp 6-31g(d) engrad
|  4> !moread
|  5>  %moinp "JOBS/a.gbw"
|  6>
|  7>
|  8>  *xyz 0 3
|  9> c  1.534580369498267  0.5523702997054315  2.3583651475949736e-10
| 10> h  1.6880414390717051  -0.7137279689676148  -4.85292524092574e-12
| 11> h  0.29178888102868855  0.2722841368654595  -4.553973832483912e-11
| 12> *
| 13> %tddft sf true
| 14> nroots 2
| 15> iroot 0
| 16> end
| 17>
| 18>
| 19>                          ****END OF INPUT****

CARTESIAN COORDINATES (ANGSTROEM)
---------------------------------
  C      1.534580    0.552370    0.000000
  H      1.688041   -0.713728   -0.000000
  H      0.291789    0.272284   -0.000000

 Total Charge           Charge          ....    0
 Multiplicity           Mult            ....    3
 Number of Electrons    NEL             ....    8
 Basis Dimension        Dim             ....   18

ORBITAL ENERGIES
----------------
                 SPIN UP ORBITALS
  NO   OCC          E(Eh)            E(eV)
   0   1.0000     -10.261118      -279.2192
   1   1.0000      -0.647675       -17.6241
   2   1.0000      -0.347189        -9.4475
   3   1.0000      -0.343582        -9.3493
   4   1.0000      -0.243872        -6.6361
   5   0.0000       0.079149         2.1538
   6   0.0000       0.081927         2.2294
   7   0.0000       0.517117        14.0715
   8   0.0000       0.527581        14.3562
   9   0.0000       0.564104        15.3500

                 SPIN DOWN ORBITALS
  NO   OCC          E(Eh)            E(eV)
   0   1.0000     -10.230823      -278.3948
   1   1.0000      -0.574565       -15.6347
   2   1.0000      -0.320321        -8.7164
   3   0.0000      -0.146514        -3.9868
   4   0.0000      -0.037962        -1.0330
   5   0.0000       0.110729         3.0131
   6   0.0000       0.117875         3.2075
   7   0.0000       0.582459        15.8495

MULLIKEN ATOMIC CHARGES AND SPIN POPULATIONS
--------------------------------------------
   0 C :   -0.261960    1.968970
   1 H :    0.130736    0.015518
   2 H :    0.131225    0.015512
Sum of atomic charges         :    0.0000000

LOEWDIN ATOMIC CHARGES AND SPIN POPULATIONS
-------------------------------------------
   0 C :   -0.232710    1.974102
   1 H :    0.116248    0.012950
   2 H :    0.116462    0.012948

  Mayer bond orders larger than 0.100000
B(  0-C ,  1-H ) :   0.9477 B(  0-C ,  2-H ) :   0.9475

-----------------------------------------------------------------------------
         ABSORPTION SPECTRUM VIA TRANSITION ELECTRIC DIPOLE MOMENTS
-----------------------------------------------------------------------------
State   Energy    Wavelength  fosc         T2        TX        TY        TZ
        (cm-1)      (nm)                 (au**2)    (au)      (au)      (au)
-----------------------------------------------------------------------------
   2   18548.3    539.1   0.000002701   0.00005  -0.00000  -0.00000   0.00692

FINAL SINGLE POINT ENERGY       -39.050475663591

DIPOLE MOMENT
-------------
                                X             Y             Z
Electronic contribution:      0.69908       0.99368       0.00000
Nuclear contribution   :     -0.87510      -1.24211      -0.00000
                        -----------------------------------------
Total Dipole Moment    :     -0.17602      -0.24843      -0.00000
                        -----------------------------------------
Magnitude (a.u.)       :      0.30447
Magnitude (Debye)      :      0.77390

Rotational constants in cm-1:    11.448172    10.918988     5.588660
Rotational constants in MHz : 343207.558011 327343.015773 167543.808726

                             ****ORCA TERMINATED NORMALLY****
TOTAL RUN TIME: 0 days 0 hours 0 minutes 2 seconds 443 msec
