                         Program Version 5.0.1 -  RELEASE  -
|  1> %pal nprocs 28 end
|  2> %maxcore 1000
|  3> ! b3lyp 6-31g(d) engrad
|  4> !moread
|  5>  %moinp "JOBS/b.gbw"
|  6>
|  7>
|  8>  *xyz 0 3
|  9> c  1.5193263648108761  0.5326902889857626  -5.071908503625623e-09
| 10> h  1.6455582165651925  -0.6671088964140881  7.130867267337607e-10
| 11> h  0.34949228562179757  0.24758493205132567  1.257463328995675e-09
| 12> *
| 13> %tddft sf true
| 14> nroots 2
| 15> iroot 1
| 16> end
| 17>
| 18>
| 19>                          ****END OF INPUT****

CARTESIAN COORDINATES (ANGSTROEM)
---------------------------------
  C      1.519326    0.532690   -0.000000
  H      1.645558   -0.667109    0.000000
  H      0.349492    0.247585    0.000000

 Total Charge           Charge          ....    0
 Multiplicity           Mult            ....    3
 Number of Electrons    NEL             ....    8
 Basis Dimension        Dim             ....   18

ORBITAL ENERGIES
----------------
                 SPIN UP ORBITALS
  NO   OCC          E(Eh)            E(eV)
   0   1.0000     -10.249759      -278.9101
   1   1.0000      -0.663751       -18.0616
   2   1.0000      -0.351716        -9.5707
   3   1.0000      -0.348171        -9.4742
   4   1.0000      -0.243464        -6.6250
   5   0.0000       0.097667         2.6577
   6   0.0000       0.105673         2.8755
   7   0.0000       0.519343        14.1320
   8   0.0000       0.528595        14.3838
   9   0.0000       0.547614        14.9013

                 SPIN DOWN ORBITALS
  NO   OCC          E(Eh)            E(eV)
   0   1.0000     -10.219027      -278.0739
   1   1.0000      -0.594739       -16.1837
   2   1.0000      -0.324766        -8.8373
   3   0.0000      -0.142421        -3.8755
   4   0.0000      -0.037193        -1.0121
   5   0.0000       0.125189         3.4066
   6   0.0000       0.139823         3.8048
   7   0.0000       0.564920        15.3722

-----------------------------------------------------------------------------
         ABSORPTION SPECTRUM VIA TRANSITION ELECTRIC DIPOLE MOMENTS
-----------------------------------------------------------------------------
State   Energy    Wavelength  fosc         T2        TX        TY        TZ
        (cm-1)      (nm)                 (au**2)    (au)      (au)      (au)
-----------------------------------------------------------------------------
   2   18614.7    537.2   0.000263063   0.00465  -0.00000  -0.00000  -0.06821

FINAL SINGLE POINT ENERGY       -39.058491857196

MULLIKEN ATOMIC CHARGES AND SPIN DENSITIES
------------------------------------------
   0 C :   -0.228396    0.003500
   1 H :    0.114079   -0.000997
   2 H :    0.114316   -0.002503
Sum of atomic charges       :   -0.0000000

LOEWDIN ATOMIC CHARGES AND SPIN DENSITIES
-----------------------------------------
   0 C :   -0.209739   -0.005602
   1 H :    0.104952    0.003350
   2 H :    0.104787    0.002252

  Mayer bond orders larger than 0.100000
B(  0-C ,  1-H ) :   0.9021 B(  0-C ,  2-H ) :   0.9036

DIPOLE MOMENT
-------------
                                X             Y             Z
Electronic contribution:      0.42211       0.60401      -0.00000
Nuclear contribution   :     -0.83837      -1.19288       0.00000
                        -----------------------------------------
Total Dipole Moment    :     -0.41626      -0.58887       0.00000
                        -----------------------------------------
Magnitude (a.u.)       :      0.72114
Magnitude (Debye)      :      1.83299

Rotational constants in cm-1:    13.292091    11.857915     6.267056
Rotational constants in MHz : 398486.860255 355491.344480 187881.597664

                             ****ORCA TERMINATED NORMALLY****
TOTAL RUN TIME: 0 days 0 hours 0 minutes 3 seconds 724 msec
