                         Program Version 5.0.1 -  RELEASE  -
|  1> %pal nprocs 28 end
|  2> %maxcore 1000
|  3> ! b3lyp 6-31g(d) engrad
|  4> !moread
|  5>  %moinp "JOBS/a.gbw"
|  6>
|  7>
|  8>  *xyz 0 3
|  9> c  1.518635074930984  0.5307815087569312  -1.8151920106739825e-09
| 10> h  1.6581131646062717  -0.6757105657561069  1.3083345218245285e-09
| 11> h  0.3376764267049319  0.2568195515075418  1.6677194493888876e-09
| 12> *
| 13> %tddft sf true
| 14> nroots 2
| 15> iroot 0
| 16> end
| 17>
| 18>
| 19>                          ****END OF INPUT****

CARTESIAN COORDINATES (ANGSTROEM)
---------------------------------
  C      1.518635    0.530782   -0.000000
  H      1.658113   -0.675711    0.000000
  H      0.337676    0.256820    0.000000

 Total Charge           Charge          ....    0
 Multiplicity           Mult            ....    3
 Number of Electrons    NEL             ....    8
 Basis Dimension        Dim             ....   18

ORBITAL ENERGIES
----------------
                 SPIN UP ORBITALS
  NO   OCC          E(Eh)            E(eV)
   0   1.0000     -10.250823      -278.9391
   1   1.0000      -0.661001       -17.9867
   2   1.0000      -0.353030        -9.6064
   3   1.0000      -0.346033        -9.4160
   4   1.0000      -0.243253        -6.6193
   5   0.0000       0.096038         2.6133
   6   0.0000       0.103436         2.8146
   7   0.0000       0.519245        14.1294
   8   0.0000       0.528583        14.3835
   9   0.0000       0.549825        14.9615

                 SPIN DOWN ORBITALS
  NO   OCC          E(Eh)            E(eV)
   0   1.0000     -10.220203      -278.1059
   1   1.0000      -0.591180       -16.0868
   2   1.0000      -0.326253        -8.8778
   3   0.0000      -0.141513        -3.8508
   4   0.0000      -0.037221        -1.0128
   5   0.0000       0.123901         3.3715
   6   0.0000       0.137729         3.7478
   7   0.0000       0.567204        15.4344

MULLIKEN ATOMIC CHARGES AND SPIN POPULATIONS
--------------------------------------------
   0 C :   -0.279752    1.998795
   1 H :    0.139504    0.000605
   2 H :    0.140248    0.000600
Sum of atomic charges         :   -0.0000000

LOEWDIN ATOMIC CHARGES AND SPIN POPULATIONS
-------------------------------------------
   0 C :   -0.242603    1.993124
   1 H :    0.121167    0.003427
   2 H :    0.121435    0.003449

  Mayer bond orders larger than 0.100000
B(  0-C ,  1-H ) :   0.9506 B(  0-C ,  2-H ) :   0.9502

-----------------------------------------------------------------------------
         ABSORPTION SPECTRUM VIA TRANSITION ELECTRIC DIPOLE MOMENTS
-----------------------------------------------------------------------------
State   Energy    Wavelength  fosc         T2        TX        TY        TZ
        (cm-1)      (nm)                 (au**2)    (au)      (au)      (au)
-----------------------------------------------------------------------------
   2   18329.0    545.6   0.000203025   0.00365  -0.00000  -0.00000  -0.06039

FINAL SINGLE POINT ENERGY       -39.061970758433

DIPOLE MOMENT
-------------
                                X             Y             Z
Electronic contribution:      0.65737       0.93654      -0.00000
Nuclear contribution   :     -0.83666      -1.18931       0.00000
                        -----------------------------------------
Total Dipole Moment    :     -0.17930      -0.25277       0.00000
                        -----------------------------------------
Magnitude (a.u.)       :      0.30990
Magnitude (Debye)      :      0.78770

Rotational constants in cm-1:    12.800315    11.921527     6.172651
Rotational constants in MHz : 383743.794869 357398.375294 185051.417038

                             ****ORCA TERMINATED NORMALLY****
TOTAL RUN TIME: 0 days 0 hours 0 minutes 2 seconds 391 msec
