                         Program Version 5.0.1 -  RELEASE  -
|  1> %pal nprocs 28 end
|  2> %maxcore 1000
|  3> ! b3lyp 6-31g(d) engrad
|  4> !moread
|  5>  %moinp "JOBS/a.gbw"
|  6>
|  7>
|  8>  *xyz 0 3
|  9> c  1.5229583404688707  0.5434219942940061  -5.164102164734841e-09
| 10> h  1.6248494615635658  -0.6532718210814563  -1.3617321515132575e-08
| 11> h  0.36577592942260123  0.230376720580402  -1.1135468751015768e-08
| 12> *
| 13> %tddft sf true
| 14> nroots 2
| 15> iroot 0
| 16> end
| 17>
| 18>
| 19>                          ****END OF INPUT****

CARTESIAN COORDINATES (ANGSTROEM)
---------------------------------
  C      1.522958    0.543422   -0.000000
  H      1.624849   -0.653272   -0.000000
  H      0.365776    0.230377   -0.000000

 Total Charge           Charge          ....    0
 Multiplicity           Mult            ....    3
 Number of Electrons    NEL             ....    8
 Basis Dimension        Dim             ....   18

ORBITAL ENERGIES
----------------
                 SPIN UP ORBITALS
  NO   OCC          E(Eh)            E(eV)
   0   1.0000     -10.249637      -278.9068
   1   1.0000      -0.667030       -18.1508
   2   1.0000      -0.352472        -9.5913
   3   1.0000      -0.347378        -9.4526
   4   1.0000      -0.244057        -6.6411
   5   0.0000       0.097644         2.6570
   6   0.0000       0.106211         2.8901
   7   0.0000       0.519096        14.1253
   8   0.0000       0.528520        14.3818
   9   0.0000       0.546075        14.8594

                 SPIN DOWN ORBITALS
  NO   OCC          E(Eh)            E(eV)
   0   1.0000     -10.218697      -278.0649
   1   1.0000      -0.599181       -16.3046
   2   1.0000      -0.320031        -8.7085
   3   0.0000      -0.145444        -3.9577
   4   0.0000      -0.037232        -1.0131
   5   0.0000       0.125196         3.4068
   6   0.0000       0.140376         3.8198
   7   0.0000       0.563437        15.3319

MULLIKEN ATOMIC CHARGES AND SPIN POPULATIONS
--------------------------------------------
   0 C :   -0.280544    2.004462
   1 H :    0.139874   -0.002284
   2 H :    0.140670   -0.002178
Sum of atomic charges         :    0.0000000

LOEWDIN ATOMIC CHARGES AND SPIN POPULATIONS
-------------------------------------------
   0 C :   -0.247574    1.997696
   1 H :    0.123645    0.001100
   2 H :    0.123929    0.001204

  Mayer bond orders larger than 0.100000
B(  0-C ,  1-H ) :   0.9536 B(  0-C ,  2-H ) :   0.9531

-----------------------------------------------------------------------------
         ABSORPTION SPECTRUM VIA TRANSITION ELECTRIC DIPOLE MOMENTS
-----------------------------------------------------------------------------
State   Energy    Wavelength  fosc         T2        TX        TY        TZ
        (cm-1)      (nm)                 (au**2)    (au)      (au)      (au)
-----------------------------------------------------------------------------
   2   19313.1    517.8   0.000324081   0.00552   0.00000   0.00000  -0.07433

FINAL SINGLE POINT ENERGY       -39.055857716492

DIPOLE MOMENT
-------------
                                X             Y             Z
Electronic contribution:      0.66598       0.95494       0.00000
Nuclear contribution   :     -0.84776      -1.21283      -0.00000
                        -----------------------------------------
Total Dipole Moment    :     -0.18177      -0.25790      -0.00000
                        -----------------------------------------
Magnitude (a.u.)       :      0.31552
Magnitude (Debye)      :      0.80198

Rotational constants in cm-1:    14.136489    11.512441     6.345118
Rotational constants in MHz : 423801.287335 345134.290199 190221.860925

                             ****ORCA TERMINATED NORMALLY****
TOTAL RUN TIME: 0 days 0 hours 0 minutes 2 seconds 419 msec
