                         Program Version 5.0.1 -  RELEASE  -
|  1> %pal nprocs 28 end
|  2> %maxcore 1000
|  3> ! b3lyp 6-31g(d) engrad
|  4> !moread
|  5>  %moinp "JOBS/b.gbw"
|  6>
|  7>
|  8>  *xyz 0 3
|  9> c  1.526680316320647  0.529596863537013  -1.009634373979764e-08
| 10> h  1.6206766456829864  -0.6642200705878063  3.168588741263706e-08
| 11> h  0.36947460755088285  0.23112315346199386  2.9085610315522252e-08
| 12> *
| 13> %tddft sf true
| 14> nroots 2
| 15> iroot 1
| 16> end
| 17>
| 18>
| 19>                          ****END OF INPUT****

CARTESIAN COORDINATES (ANGSTROEM)
---------------------------------
  C      1.526680    0.529597   -0.000000
  H      1.620677   -0.664220    0.000000
  H      0.369475    0.231123    0.000000

 Total Charge           Charge          ....    0
 Multiplicity           Mult            ....    3
 Number of Electrons    NEL             ....    8
 Basis Dimension        Dim             ....   18

ORBITAL ENERGIES
----------------
                 SPIN UP ORBITALS
  NO   OCC          E(Eh)            E(eV)
   0   1.0000     -10.248886      -278.8864
   1   1.0000      -0.667650       -18.1677
   2   1.0000      -0.352039        -9.5795
   3   1.0000      -0.348393        -9.4803
   4   1.0000      -0.243940        -6.6380
   5   0.0000       0.098770         2.6877
   6   0.0000       0.107709         2.9309
   7   0.0000       0.519287        14.1305
   8   0.0000       0.528553        14.3827
   9   0.0000       0.545281        14.8378

                 SPIN DOWN ORBITALS
  NO   OCC          E(Eh)            E(eV)
   0   1.0000     -10.217955      -278.0447
   1   1.0000      -0.599876       -16.3235
   2   1.0000      -0.321097        -8.7375
   3   0.0000      -0.144671        -3.9367
   4   0.0000      -0.037188        -1.0119
   5   0.0000       0.126057         3.4302
   6   0.0000       0.141745         3.8571
   7   0.0000       0.562573        15.3084

-----------------------------------------------------------------------------
         ABSORPTION SPECTRUM VIA TRANSITION ELECTRIC DIPOLE MOMENTS
-----------------------------------------------------------------------------
State   Energy    Wavelength  fosc         T2        TX        TY        TZ
        (cm-1)      (nm)                 (au**2)    (au)      (au)      (au)
-----------------------------------------------------------------------------
   2   19190.6    521.1   0.000348932   0.00599   0.00000   0.00000   0.07737

FINAL SINGLE POINT ENERGY       -39.056834391899

MULLIKEN ATOMIC CHARGES AND SPIN DENSITIES
------------------------------------------
   0 C :   -0.228354    0.001460
   1 H :    0.114167    0.000314
   2 H :    0.114187   -0.001774
Sum of atomic charges       :    0.0000000

LOEWDIN ATOMIC CHARGES AND SPIN DENSITIES
-----------------------------------------
   0 C :   -0.212683   -0.007109
   1 H :    0.106523    0.004313
   2 H :    0.106160    0.002796

  Mayer bond orders larger than 0.100000
B(  0-C ,  1-H ) :   0.9011 B(  0-C ,  2-H ) :   0.9032

DIPOLE MOMENT
-------------
                                X             Y             Z
Electronic contribution:      0.43012       0.60721      -0.00000
Nuclear contribution   :     -0.85412      -1.19882       0.00000
                        -----------------------------------------
Total Dipole Moment    :     -0.42400      -0.59161       0.00000
                        -----------------------------------------
Magnitude (a.u.)       :      0.72786
Magnitude (Debye)      :      1.85007

Rotational constants in cm-1:    14.130314    11.634489     6.380758
Rotational constants in MHz : 423616.148364 348793.206327 191290.322602

                             ****ORCA TERMINATED NORMALLY****
TOTAL RUN TIME: 0 days 0 hours 0 minutes 3 seconds 667 msec
