                         Program Version 5.0.1 -  RELEASE  -
|  1> %pal nprocs 28 end
|  2> %maxcore 1000
|  3> ! b3lyp 6-31g(d) engrad
|  4> !moread
|  5>  %moinp "JOBS/b.gbw"
|  6>
|  7>
|  8>  *xyz 0 3
|  9> c  1.494867515172804  0.5882012387430908  -5.546845450574267e-08
| 10> h  1.645742885133846  -0.5949403503998096  -1.8504444741172467e-07
| 11> h  0.3584565640696953  0.23314295990292713  -1.6293031396422148e-07
| 12> *
| 13> %tddft sf true
| 14> nroots 2
| 15> iroot 1
| 16> end
| 17>
| 18>
| 19>                          ****END OF INPUT****

CARTESIAN COORDINATES (ANGSTROEM)
---------------------------------
  C      1.494868    0.588201   -0.000000
  H      1.645743   -0.594940   -0.000000
  H      0.358457    0.233143   -0.000000

 Total Charge           Charge          ....    0
 Multiplicity           Mult            ....    3
 Number of Electrons    NEL             ....    8
 Basis Dimension        Dim             ....   18

ORBITAL ENERGIES
----------------
                 SPIN UP ORBITALS
  NO   OCC          E(Eh)            E(eV)
   0   1.0000     -10.248085      -278.8646
   1   1.0000      -0.668883       -18.2012
   2   1.0000      -0.352330        -9.5874
   3   1.0000      -0.348683        -9.4881
   4   1.0000      -0.243927        -6.6376
   5   0.0000       0.099903         2.7185
   6   0.0000       0.109365         2.9760
   7   0.0000       0.519441        14.1347
   8   0.0000       0.528567        14.3830
   9   0.0000       0.544230        14.8093

                 SPIN DOWN ORBITALS
  NO   OCC          E(Eh)            E(eV)
   0   1.0000     -10.217128      -278.0222
   1   1.0000      -0.601394       -16.3648
   2   1.0000      -0.321363        -8.7447
   3   0.0000      -0.144412        -3.9297
   4   0.0000      -0.037154        -1.0110
   5   0.0000       0.126918         3.4536
   6   0.0000       0.143273         3.8987
   7   0.0000       0.561467        15.2783

-----------------------------------------------------------------------------
         ABSORPTION SPECTRUM VIA TRANSITION ELECTRIC DIPOLE MOMENTS
-----------------------------------------------------------------------------
State   Energy    Wavelength  fosc         T2        TX        TY        TZ
        (cm-1)      (nm)                 (au**2)    (au)      (au)      (au)
-----------------------------------------------------------------------------
   2   19186.4    521.2   0.000387168   0.00664   0.00000   0.00000  -0.08151

FINAL SINGLE POINT ENERGY       -39.057071214559

MULLIKEN ATOMIC CHARGES AND SPIN DENSITIES
------------------------------------------
   0 C :   -0.229955    0.001082
   1 H :    0.114614   -0.000420
   2 H :    0.115341   -0.000662
Sum of atomic charges       :   -0.0000000

LOEWDIN ATOMIC CHARGES AND SPIN DENSITIES
-----------------------------------------
   0 C :   -0.213723   -0.007373
   1 H :    0.106727    0.003762
   2 H :    0.106996    0.003611

  Mayer bond orders larger than 0.100000
B(  0-C ,  1-H ) :   0.9022 B(  0-C ,  2-H ) :   0.9018

DIPOLE MOMENT
-------------
                                X             Y             Z
Electronic contribution:      0.39510       0.62034       0.00000
Nuclear contribution   :     -0.79172      -1.23570      -0.00000
                        -----------------------------------------
Total Dipole Moment    :     -0.39662      -0.61535      -0.00000
                        -----------------------------------------
Magnitude (a.u.)       :      0.73210
Magnitude (Debye)      :      1.86084

Rotational constants in cm-1:    14.276901    11.704290     6.431614
Rotational constants in MHz : 428010.718022 350885.801614 192814.937680

                             ****ORCA TERMINATED NORMALLY****
TOTAL RUN TIME: 0 days 0 hours 0 minutes 3 seconds 815 msec
