                         Program Version 5.0.1 -  RELEASE  -
|  1> %pal nprocs 28 end
|  2> %maxcore 1000
|  3> ! b3lyp 6-31g(d) engrad
|  4> !moread
|  5>  %moinp "JOBS/b.gbw"
|  6>
|  7>
|  8>  *xyz 0 3
|  9> c  1.4791028293215958  0.6239845852197011  -1.2833212528543665e-07
| 10> h  1.6585701491434828  -0.5555299525378276  -2.9249652048819436e-07
| 11> h  0.35182464546029296  0.23288196195891425  -2.571762451126945e-07
| 12> *
| 13> %tddft sf true
| 14> nroots 2
| 15> iroot 1
| 16> end
| 17>
| 18>
| 19>                          ****END OF INPUT****

CARTESIAN COORDINATES (ANGSTROEM)
---------------------------------
  C      1.479103    0.623985   -0.000000
  H      1.658570   -0.555530   -0.000000
  H      0.351825    0.232882   -0.000000

 Total Charge           Charge          ....    0
 Multiplicity           Mult            ....    3
 Number of Electrons    NEL             ....    8
 Basis Dimension        Dim             ....   18

ORBITAL ENERGIES
----------------
                 SPIN UP ORBITALS
  NO   OCC          E(Eh)            E(eV)
   0   1.0000     -10.248486      -278.8755
   1   1.0000      -0.668852       -18.2004
   2   1.0000      -0.352950        -9.6043
   3   1.0000      -0.347732        -9.4623
   4   1.0000      -0.244044        -6.6408
   5   0.0000       0.099280         2.7015
   6   0.0000       0.108597         2.9551
   7   0.0000       0.519313        14.1312
   8   0.0000       0.528548        14.3825
   9   0.0000       0.544556        14.8181

                 SPIN DOWN ORBITALS
  NO   OCC          E(Eh)            E(eV)
   0   1.0000     -10.217504      -278.0324
   1   1.0000      -0.601431       -16.3658
   2   1.0000      -0.320345        -8.7170
   3   0.0000      -0.145095        -3.9482
   4   0.0000      -0.037181        -1.0118
   5   0.0000       0.126440         3.4406
   6   0.0000       0.142580         3.8798
   7   0.0000       0.561839        15.2884

-----------------------------------------------------------------------------
         ABSORPTION SPECTRUM VIA TRANSITION ELECTRIC DIPOLE MOMENTS
-----------------------------------------------------------------------------
State   Energy    Wavelength  fosc         T2        TX        TY        TZ
        (cm-1)      (nm)                 (au**2)    (au)      (au)      (au)
-----------------------------------------------------------------------------
   2   19315.3    517.7   0.000381293   0.00650   0.00000   0.00000  -0.08062

FINAL SINGLE POINT ENERGY       -39.056480786990

MULLIKEN ATOMIC CHARGES AND SPIN DENSITIES
------------------------------------------
   0 C :   -0.228636    0.000851
   1 H :    0.114062   -0.001078
   2 H :    0.114574    0.000226
Sum of atomic charges       :    0.0000000

LOEWDIN ATOMIC CHARGES AND SPIN DENSITIES
-----------------------------------------
   0 C :   -0.213639   -0.007559
   1 H :    0.106571    0.003289
   2 H :    0.107068    0.004270

  Mayer bond orders larger than 0.100000
B(  0-C ,  1-H ) :   0.9028 B(  0-C ,  2-H ) :   0.9010

DIPOLE MOMENT
-------------
                                X             Y             Z
Electronic contribution:      0.38395       0.63638       0.00000
Nuclear contribution   :     -0.76141      -1.26174      -0.00000
                        -----------------------------------------
Total Dipole Moment    :     -0.37747      -0.62535      -0.00000
                        -----------------------------------------
Magnitude (a.u.)       :      0.73044
Magnitude (Debye)      :      1.85664

Rotational constants in cm-1:    14.360312    11.607621     6.419034
Rotational constants in MHz : 430511.308448 347987.709689 192437.807540

                             ****ORCA TERMINATED NORMALLY****
TOTAL RUN TIME: 0 days 0 hours 0 minutes 3 seconds 719 msec
