                         Program Version 5.0.1 -  RELEASE  -
|  1> %pal nprocs 28 end
|  2> %maxcore 1000
|  3> ! b3lyp 6-31g(d)
|  4>
|  5>  *xyz 0 3
|  6> c  1.40905202  0.37147736  0.0
|  7> h  1.76570645  -0.63733264  0.0
|  8> h  0.33905202  0.37149055  0.0
|  9> *
| 10> %tddft sf true
| 11> nroots 2
| 12> iroot 1
| 13> end
| 14>
| 15>
| 16>                          ****END OF INPUT****

CARTESIAN COORDINATES (ANGSTROEM)
---------------------------------
  C      1.409052    0.371477    0.000000
  H      1.765706   -0.637333    0.000000
  H      0.339052    0.371491    0.000000

 Total Charge           Charge          ....    0
 Multiplicity           Mult            ....    3
 Number of Electrons    NEL             ....    8
 Basis Dimension        Dim             ....   18

ORBITAL ENERGIES
----------------
                 SPIN UP ORBITALS
  NO   OCC          E(Eh)            E(eV)
   0   1.0000     -10.215259      -277.9713
   1   1.0000      -0.680894       -18.5281
   2   1.0000      -0.419801       -11.4234
   3   1.0000      -0.306278        -8.3342
   4   1.0000      -0.236520        -6.4360
   5   0.0000       0.134461         3.6589
   6   0.0000       0.174160         4.7391
   7   0.0000       0.527312        14.3489
   8   0.0000       0.528748        14.3880
   9   0.0000       0.529255        14.4018

                 SPIN DOWN ORBITALS
  NO   OCC          E(Eh)            E(eV)
   0   1.0000     -10.185817      -277.1702
   1   1.0000      -0.609943       -16.5974
   2   1.0000      -0.395900       -10.7730
   3   0.0000      -0.095334        -2.5942
   4   0.0000      -0.035499        -0.9660
   5   0.0000       0.154016         4.1910
   6   0.0000       0.199531         5.4295
   7   0.0000       0.546959        14.8835

MULLIKEN ATOMIC CHARGES AND SPIN POPULATIONS
--------------------------------------------
   0 C :   -0.324220    2.067910
   1 H :    0.162116   -0.033960
   2 H :    0.162105   -0.033950
Sum of atomic charges         :    0.0000000

LOEWDIN ATOMIC CHARGES AND SPIN POPULATIONS
-------------------------------------------
   0 C :   -0.253008    2.021976
   1 H :    0.126508   -0.010991
   2 H :    0.126500   -0.010986

  Mayer bond orders larger than 0.100000
B(  0-C ,  1-H ) :   0.9412 B(  0-C ,  2-H ) :   0.9412

-----------------------------------------------------------------------------
         ABSORPTION SPECTRUM VIA TRANSITION ELECTRIC DIPOLE MOMENTS
-----------------------------------------------------------------------------
State   Energy    Wavelength  fosc         T2        TX        TY        TZ
        (cm-1)      (nm)                 (au**2)    (au)      (au)      (au)
-----------------------------------------------------------------------------
   2    9653.6   1035.9   0.000466707   0.01592   0.00000   0.00000   0.12616

FINAL SINGLE POINT ENERGY       -39.068994911949

DIPOLE MOMENT
-------------
                                X             Y             Z
Electronic contribution:      0.40815       0.57716      -0.00000
Nuclear contribution   :     -0.57306      -0.81041       0.00000
                        -----------------------------------------
Total Dipole Moment    :     -0.16491      -0.23324      -0.00000
                        -----------------------------------------
Magnitude (a.u.)       :      0.28565
Magnitude (Debye)      :      0.72607

Rotational constants in cm-1:    25.588559    10.955445     7.671137
Rotational constants in MHz : 767125.690294 328435.973689 229974.889882

                             ****ORCA TERMINATED NORMALLY****
TOTAL RUN TIME: 0 days 0 hours 0 minutes 3 seconds 79 msec
