                         Program Version 5.0.1 -  RELEASE  -
|  1> %pal nprocs 28 end
|  2> %maxcore 1000
|  3> ! hf 3-21g engrad
|  4> !moread
|  5>  %moinp "JOBS/a.gbw"
|  6>
|  7>
|  8>  *xyz 0 1
|  9> c  1.40905202  0.37147736  0.0
| 10> h  1.76570645  -0.63733264  0.0
| 11> h  0.33905202  0.37149055  0.0
| 12> *
| 13> % casscf nel 2 norb 2 nroots 2 weights[0] = 1,0
| 14> maxiter 200
| 15> orbstep superci_pt
| 16> switchstep diis
| 17> shiftup 2.0
| 18> shiftdn 2.0
| 19> minshift 0.6
| 20> end
| 21>
| 22>
| 23>                          ****END OF INPUT****

CARTESIAN COORDINATES (ANGSTROEM)
---------------------------------
  C      1.409052    0.371477    0.000000
  H      1.765706   -0.637333    0.000000
  H      0.339052    0.371491    0.000000

 Total Charge           Charge          ....    0
 Multiplicity           Mult            ....    1
 Number of Electrons    NEL             ....    8
 Basis Dimension        Dim             ....   13

ORBITAL ENERGIES
----------------

  NO   OCC          E(Eh)            E(eV)
   0   2.0000     -11.209249      -305.0192
   1   2.0000      -0.815488       -22.1906
   2   2.0000      -0.580817       -15.8048
   3   1.9238      -0.435734       -11.8569
   4   0.0762       0.095998         2.6122
   5   0.0000       0.298823         8.1314
   6   0.0000       0.356727         9.7070
   7   0.0000       0.914161        24.8756
   8   0.0000       0.971284        26.4300
   9   0.0000       0.978772        26.6337

MULLIKEN ATOMIC CHARGES
-----------------------
   0 C :   -0.324249
   1 H :    0.162124
   2 H :    0.162124
Sum of atomic charges:   -0.0000000

LOEWDIN ATOMIC CHARGES
----------------------
   0 C :   -0.121448
   1 H :    0.060724
   2 H :    0.060724

  Mayer bond orders larger than 0.100000
B(  0-C ,  1-H ) :   0.9126 B(  0-C ,  2-H ) :   0.9126

FINAL SINGLE POINT ENERGY       -38.665269322305

DIPOLE MOMENT
-------------
                                X             Y             Z
Electronic contribution:      0.11715       0.16568      -0.00000
Nuclear contribution   :     -0.57306      -0.81041       0.00000
                        -----------------------------------------
Total Dipole Moment    :     -0.45591      -0.64473      -0.00000
                        -----------------------------------------
Magnitude (a.u.)       :      0.78964
Magnitude (Debye)      :      2.00710

Rotational constants in cm-1:    25.588559    10.955445     7.671137
Rotational constants in MHz : 767125.690294 328435.973689 229974.889882

                             ****ORCA TERMINATED NORMALLY****
TOTAL RUN TIME: 0 days 0 hours 0 minutes 4 seconds 235 msec
