                         Program Version 5.0.1 -  RELEASE  -
|  1> %pal nprocs 28 end
|  2> %maxcore 1000
|  3> ! hf 3-21g engrad
|  4> !moread
|  5>  %moinp "JOBS/b.gbw"
|  6>
|  7>
|  8>  *xyz 0 1
|  9> c  1.40905202  0.37147736  0.0
| 10> h  1.76570645  -0.63733264  0.0
| 11> h  0.33905202  0.37149055  0.0
| 12> *
| 13> % casscf nel 2 norb 2 nroots 2 weights[0] = 0,1
| 14> maxiter 200
| 15> orbstep superci_pt
| 16> switchstep diis
| 17> shiftup 2.0
| 18> shiftdn 2.0
| 19> minshift 0.6
| 20> end
| 21>
| 22>
| 23>                          ****END OF INPUT****

CARTESIAN COORDINATES (ANGSTROEM)
---------------------------------
  C      1.409052    0.371477    0.000000
  H      1.765706   -0.637333    0.000000
  H      0.339052    0.371491    0.000000

 Total Charge           Charge          ....    0
 Multiplicity           Mult            ....    1
 Number of Electrons    NEL             ....    8
 Basis Dimension        Dim             ....   13

ORBITAL ENERGIES
----------------

  NO   OCC          E(Eh)            E(eV)
   0   2.0000     -11.197091      -304.6883
   1   2.0000      -0.877060       -23.8660
   2   2.0000      -0.571806       -15.5596
   3   1.0000      -0.140927        -3.8348
   4   1.0000      -0.140927        -3.8348
   5   0.0000       0.307453         8.3662
   6   0.0000       0.359055         9.7704
   7   0.0000       0.915155        24.9026
   8   0.0000       0.979869        26.6636
   9   0.0000       0.993664        27.0390

MULLIKEN ATOMIC CHARGES
-----------------------
   0 C :   -0.448845
   1 H :    0.224423
   2 H :    0.224422
Sum of atomic charges:   -0.0000000

LOEWDIN ATOMIC CHARGES
----------------------
   0 C :   -0.204075
   1 H :    0.102038
   2 H :    0.102038

  Mayer bond orders larger than 0.100000
B(  0-C ,  1-H ) :   0.8756 B(  0-C ,  2-H ) :   0.8756

FINAL SINGLE POINT ENERGY       -38.611002158291

DIPOLE MOMENT
-------------
                                X             Y             Z
Electronic contribution:      0.30025       0.42460       0.00000
Nuclear contribution   :     -0.57306      -0.81041       0.00000
                        -----------------------------------------
Total Dipole Moment    :     -0.27281      -0.38580       0.00000
                        -----------------------------------------
Magnitude (a.u.)       :      0.47252
Magnitude (Debye)      :      1.20104

Rotational constants in cm-1:    25.588559    10.955445     7.671137
Rotational constants in MHz : 767125.690294 328435.973689 229974.889882

                             ****ORCA TERMINATED NORMALLY****
TOTAL RUN TIME: 0 days 0 hours 0 minutes 4 seconds 183 msec
