                         Program Version 5.0.1 -  RELEASE  -
|  1> %pal nprocs 28 end
|  2> %maxcore 1000
|  3> ! hf 3-21g engrad
|  4> !moread
|  5>  %moinp "JOBS/a.gbw"
|  6>
|  7>
|  8>  *xyz 0 1
|  9> c  1.2389800279669017  0.1309571341743676  1.2151236667371094e-06
| 10> h  1.9913252287664889  -0.6164751907050587  -6.075668241031136e-07
| 11> h  0.28352376386255884  0.5911539206623966  -6.075366420116578e-07
| 12> *
| 13> % casscf nel 2 norb 2 nroots 2 weights[0] = 1,0
| 14> maxiter 200
| 15> orbstep superci_pt
| 16> switchstep diis
| 17> shiftup 2.0
| 18> shiftdn 2.0
| 19> minshift 0.6
| 20> end
| 21>
| 22>
| 23>                          ****END OF INPUT****

CARTESIAN COORDINATES (ANGSTROEM)
---------------------------------
  C      1.238980    0.130957    0.000001
  H      1.991325   -0.616475   -0.000001
  H      0.283524    0.591154   -0.000001

 Total Charge           Charge          ....    0
 Multiplicity           Mult            ....    1
 Number of Electrons    NEL             ....    8
 Basis Dimension        Dim             ....   13

ORBITAL ENERGIES
----------------

  NO   OCC          E(Eh)            E(eV)
   0   2.0000     -11.178641      -304.1863
   1   2.0000      -0.849998       -23.1296
   2   2.0000      -0.631359       -17.1801
   3   1.2207      -0.150007        -4.0819
   4   0.7793      -0.053369        -1.4522
   5   0.0000       0.264383         7.1942
   6   0.0000       0.387971        10.5572
   7   0.0000       0.957050        26.0426
   8   0.0000       1.003111        27.2961
   9   0.0000       1.030393        28.0384

MULLIKEN ATOMIC CHARGES
-----------------------
   0 C :   -0.542019
   1 H :    0.271009
   2 H :    0.271009
Sum of atomic charges:   -0.0000000

LOEWDIN ATOMIC CHARGES
----------------------
   0 C :   -0.277560
   1 H :    0.138780
   2 H :    0.138780

  Mayer bond orders larger than 0.100000
B(  0-C ,  1-H ) :   0.8999 B(  0-C ,  2-H ) :   0.8999

FINAL SINGLE POINT ENERGY       -38.631358782955

DIPOLE MOMENT
-------------
                                X             Y             Z
Electronic contribution:      0.00858       0.01214       0.00000
Nuclear contribution   :     -0.16317      -0.23075      -0.00000
                        -----------------------------------------
Total Dipole Moment    :     -0.15458      -0.21861      -0.00000
                        -----------------------------------------
Magnitude (a.u.)       :      0.26774
Magnitude (Debye)      :      0.68054

Rotational constants in cm-1:   315.629403     7.645271     7.464464
Rotational constants in MHz : 9462331.457296 229199.457309 223779.014275

                             ****ORCA TERMINATED NORMALLY****
TOTAL RUN TIME: 0 days 0 hours 0 minutes 4 seconds 315 msec
