                         Program Version 5.0.1 -  RELEASE  -
|  1> %pal nprocs 28 end
|  2> %maxcore 1000
|  3> ! hf 3-21g engrad
|  4> !moread
|  5>  %moinp "JOBS/b.gbw"
|  6>
|  7>
|  8>  *xyz 0 1
|  9> c  1.2389800279669017  0.1309571341743676  1.2151236667371094e-06
| 10> h  1.9913252287664889  -0.6164751907050587  -6.075668241031136e-07
| 11> h  0.28352376386255884  0.5911539206623966  -6.075366420116578e-07
| 12> *
| 13> % casscf nel 2 norb 2 nroots 2 weights[0] = 0,1
| 14> maxiter 200
| 15> orbstep superci_pt
| 16> switchstep diis
| 17> shiftup 2.0
| 18> shiftdn 2.0
| 19> minshift 0.6
| 20> end
| 21>
| 22>
| 23>                          ****END OF INPUT****

CARTESIAN COORDINATES (ANGSTROEM)
---------------------------------
  C      1.238980    0.130957    0.000001
  H      1.991325   -0.616475   -0.000001
  H      0.283524    0.591154   -0.000001

 Total Charge           Charge          ....    0
 Multiplicity           Mult            ....    1
 Number of Electrons    NEL             ....    8
 Basis Dimension        Dim             ....   13

ORBITAL ENERGIES
----------------

  NO   OCC          E(Eh)            E(eV)
   0   2.0000     -11.178117      -304.1720
   1   2.0000      -0.849205       -23.1080
   2   2.0000      -0.631051       -17.1718
   3   1.0000      -0.101881        -2.7723
   4   1.0000      -0.101881        -2.7723
   5   0.0000       0.264895         7.2081
   6   0.0000       0.388081        10.5602
   7   0.0000       0.958819        26.0908
   8   0.0000       1.002365        27.2758
   9   0.0000       1.029987        28.0274

MULLIKEN ATOMIC CHARGES
-----------------------
   0 C :   -0.547410
   1 H :    0.273705
   2 H :    0.273705
Sum of atomic charges:   -0.0000000

LOEWDIN ATOMIC CHARGES
----------------------
   0 C :   -0.280570
   1 H :    0.140285
   2 H :    0.140285

  Mayer bond orders larger than 0.100000
B(  0-C ,  1-H ) :   0.8988 B(  0-C ,  2-H ) :   0.8988

FINAL SINGLE POINT ENERGY       -38.630427800605

DIPOLE MOMENT
-------------
                                X             Y             Z
Electronic contribution:      0.03507       0.04959       0.00000
Nuclear contribution   :     -0.16317      -0.23075      -0.00000
                        -----------------------------------------
Total Dipole Moment    :     -0.12810      -0.18115      -0.00000
                        -----------------------------------------
Magnitude (a.u.)       :      0.22187
Magnitude (Debye)      :      0.56394

Rotational constants in cm-1:   315.629403     7.645271     7.464464
Rotational constants in MHz : 9462331.457296 229199.457309 223779.014275

                             ****ORCA TERMINATED NORMALLY****
TOTAL RUN TIME: 0 days 0 hours 0 minutes 4 seconds 318 msec
