                         Program Version 5.0.1 -  RELEASE  -
|  1> %pal nprocs 28 end
|  2> %maxcore 1000
|  3> ! hf 3-21g engrad
|  4> !moread
|  5>  %moinp "JOBS/b.gbw"
|  6>
|  7>
|  8>  *xyz 0 1
|  9> c  1.2767728296814205  0.18440297038773748  -6.272867966931257e-07
| 10> h  1.9648130396675128  -0.637812456874498  3.136358944020387e-07
| 11> h  0.27224315124955134  0.559045350621249  3.1367069127188227e-07
| 12> *
| 13> % casscf nel 2 norb 2 nroots 2 weights[0] = 0,1
| 14> maxiter 200
| 15> orbstep superci_pt
| 16> switchstep diis
| 17> shiftup 2.0
| 18> shiftdn 2.0
| 19> minshift 0.6
| 20> end
| 21>
| 22>
| 23>                          ****END OF INPUT****

CARTESIAN COORDINATES (ANGSTROEM)
---------------------------------
  C      1.276773    0.184403   -0.000001
  H      1.964813   -0.637812    0.000000
  H      0.272243    0.559045    0.000000

 Total Charge           Charge          ....    0
 Multiplicity           Mult            ....    1
 Number of Electrons    NEL             ....    8
 Basis Dimension        Dim             ....   13

ORBITAL ENERGIES
----------------

  NO   OCC          E(Eh)            E(eV)
   0   2.0000     -11.183194      -304.3102
   1   2.0000      -0.850113       -23.1327
   2   2.0000      -0.620451       -16.8833
   3   1.0000      -0.107959        -2.9377
   4   1.0000      -0.107959        -2.9377
   5   0.0000       0.269199         7.3253
   6   0.0000       0.382960        10.4209
   7   0.0000       0.955663        26.0049
   8   0.0000       1.000441        27.2234
   9   0.0000       1.052743        28.6466

MULLIKEN ATOMIC CHARGES
-----------------------
   0 C :   -0.509413
   1 H :    0.254706
   2 H :    0.254706
Sum of atomic charges:   -0.0000000

LOEWDIN ATOMIC CHARGES
----------------------
   0 C :   -0.265795
   1 H :    0.132897
   2 H :    0.132897

  Mayer bond orders larger than 0.100000
B(  0-C ,  1-H ) :   0.8958 B(  0-C ,  2-H ) :   0.8958

FINAL SINGLE POINT ENERGY       -38.631187544418

DIPOLE MOMENT
-------------
                                X             Y             Z
Electronic contribution:      0.07445       0.10528      -0.00000
Nuclear contribution   :     -0.25425      -0.35955       0.00000
                        -----------------------------------------
Total Dipole Moment    :     -0.17980      -0.25427       0.00000
                        -----------------------------------------
Magnitude (a.u.)       :      0.31142
Magnitude (Debye)      :      0.79157

Rotational constants in cm-1:   129.994804     7.783494     7.343782
Rotational constants in MHz : 3897146.190377 233343.276227 220161.040804

                             ****ORCA TERMINATED NORMALLY****
TOTAL RUN TIME: 0 days 0 hours 0 minutes 4 seconds 300 msec
