                         Program Version 5.0.1 -  RELEASE  -
|  1> %pal nprocs 28 end
|  2> %maxcore 1000
|  3> ! hf 3-21g engrad
|  4> !moread
|  5>  %moinp "JOBS/a.gbw"
|  6>
|  7>
|  8>  *xyz 0 1
|  9> c  1.2308836415383169  0.11950723780251685  1.847660879035684e-06
| 10> h  1.9969648462134106  -0.6118756307887477  -9.238344266832103e-07
| 11> h  0.2859805328446751  0.5980042571188654  -9.238051877205777e-07
| 12> *
| 13> % casscf nel 2 norb 2 nroots 2 weights[0] = 1,0
| 14> maxiter 200
| 15> orbstep superci_pt
| 16> switchstep diis
| 17> shiftup 2.0
| 18> shiftdn 2.0
| 19> minshift 0.6
| 20> end
| 21>
| 22>
| 23>                          ****END OF INPUT****

CARTESIAN COORDINATES (ANGSTROEM)
---------------------------------
  C      1.230884    0.119507    0.000002
  H      1.996965   -0.611876   -0.000001
  H      0.285981    0.598004   -0.000001

 Total Charge           Charge          ....    0
 Multiplicity           Mult            ....    1
 Number of Electrons    NEL             ....    8
 Basis Dimension        Dim             ....   13

ORBITAL ENERGIES
----------------

  NO   OCC          E(Eh)            E(eV)
   0   2.0000     -11.177683      -304.1602
   1   2.0000      -0.849309       -23.1109
   2   2.0000      -0.632733       -17.2176
   3   1.1744      -0.138937        -3.7807
   4   0.8256      -0.062518        -1.7012
   5   0.0000       0.263570         7.1721
   6   0.0000       0.388697        10.5770
   7   0.0000       0.959232        26.1020
   8   0.0000       1.003329        27.3020
   9   0.0000       1.025654        27.9095

MULLIKEN ATOMIC CHARGES
-----------------------
   0 C :   -0.551673
   1 H :    0.275836
   2 H :    0.275836
Sum of atomic charges:   -0.0000000

LOEWDIN ATOMIC CHARGES
----------------------
   0 C :   -0.281605
   1 H :    0.140802
   2 H :    0.140802

  Mayer bond orders larger than 0.100000
B(  0-C ,  1-H ) :   0.8997 B(  0-C ,  2-H ) :   0.8997

FINAL SINGLE POINT ENERGY       -38.630756472559

DIPOLE MOMENT
-------------
                                X             Y             Z
Electronic contribution:      0.01003       0.01419       0.00000
Nuclear contribution   :     -0.14365      -0.20315      -0.00000
                        -----------------------------------------
Total Dipole Moment    :     -0.13362      -0.18896      -0.00000
                        -----------------------------------------
Magnitude (a.u.)       :      0.23144
Magnitude (Debye)      :      0.58826

Rotational constants in cm-1:   407.196675     7.616853     7.476991
Rotational constants in MHz : 12207449.195132 228347.503392 224154.560747

                             ****ORCA TERMINATED NORMALLY****
TOTAL RUN TIME: 0 days 0 hours 0 minutes 4 seconds 376 msec
