                         Program Version 5.0.1 -  RELEASE  -
|  1> %pal nprocs 28 end
|  2> %maxcore 1000
|  3> ! hf 3-21g engrad
|  4> !moread
|  5>  %moinp "JOBS/b.gbw"
|  6>
|  7>
|  8>  *xyz 0 1
|  9> c  1.2308836415383169  0.11950723780251685  1.847660879035684e-06
| 10> h  1.9969648462134106  -0.6118756307887477  -9.238344266832103e-07
| 11> h  0.2859805328446751  0.5980042571188654  -9.238051877205777e-07
| 12> *
| 13> % casscf nel 2 norb 2 nroots 2 weights[0] = 0,1
| 14> maxiter 200
| 15> orbstep superci_pt
| 16> switchstep diis
| 17> shiftup 2.0
| 18> shiftdn 2.0
| 19> minshift 0.6
| 20> end
| 21>
| 22>
| 23>                          ****END OF INPUT****

CARTESIAN COORDINATES (ANGSTROEM)
---------------------------------
  C      1.230884    0.119507    0.000002
  H      1.996965   -0.611876   -0.000001
  H      0.285981    0.598004   -0.000001

 Total Charge           Charge          ....    0
 Multiplicity           Mult            ....    1
 Number of Electrons    NEL             ....    8
 Basis Dimension        Dim             ....   13

ORBITAL ENERGIES
----------------

  NO   OCC          E(Eh)            E(eV)
   0   2.0000     -11.177356      -304.1513
   1   2.0000      -0.848815       -23.0974
   2   2.0000      -0.632545       -17.2124
   3   1.0000      -0.100847        -2.7442
   4   1.0000      -0.100847        -2.7442
   5   0.0000       0.263895         7.1809
   6   0.0000       0.388764        10.5788
   7   0.0000       0.960468        26.1357
   8   0.0000       1.002687        27.2845
   9   0.0000       1.025454        27.9040

MULLIKEN ATOMIC CHARGES
-----------------------
   0 C :   -0.555134
   1 H :    0.277567
   2 H :    0.277567
Sum of atomic charges:    0.0000000

LOEWDIN ATOMIC CHARGES
----------------------
   0 C :   -0.283499
   1 H :    0.141749
   2 H :    0.141749

  Mayer bond orders larger than 0.100000
B(  0-C ,  1-H ) :   0.8990 B(  0-C ,  2-H ) :   0.8990

FINAL SINGLE POINT ENERGY       -38.630185906275

DIPOLE MOMENT
-------------
                                X             Y             Z
Electronic contribution:      0.02878       0.04071       0.00000
Nuclear contribution   :     -0.14365      -0.20315      -0.00000
                        -----------------------------------------
Total Dipole Moment    :     -0.11487      -0.16245      -0.00000
                        -----------------------------------------
Magnitude (a.u.)       :      0.19896
Magnitude (Debye)      :      0.50571

Rotational constants in cm-1:   407.196675     7.616853     7.476991
Rotational constants in MHz : 12207449.195132 228347.503392 224154.560747

                             ****ORCA TERMINATED NORMALLY****
TOTAL RUN TIME: 0 days 0 hours 0 minutes 4 seconds 250 msec
