                         Program Version 5.0.1 -  RELEASE  -
|  1> %pal nprocs 28 end
|  2> %maxcore 1000
|  3> ! hf 3-21g engrad
|  4> !moread
|  5>  %moinp "JOBS/a.gbw"
|  6>
|  7>
|  8>  *xyz 0 1
|  9> c  1.2244674707191416  0.11043349049493156  2.1778534463268067e-06
| 10> h  2.001544084218138  -0.6083083864627526  -1.0889312133188265e-06
| 11> h  0.2878174656612092  0.603510760099954  -1.0889029953616748e-06
| 12> *
| 13> % casscf nel 2 norb 2 nroots 2 weights[0] = 1,0
| 14> maxiter 200
| 15> orbstep superci_pt
| 16> switchstep diis
| 17> shiftup 2.0
| 18> shiftdn 2.0
| 19> minshift 0.6
| 20> end
| 21>
| 22>
| 23>                          ****END OF INPUT****

CARTESIAN COORDINATES (ANGSTROEM)
---------------------------------
  C      1.224467    0.110433    0.000002
  H      2.001544   -0.608308   -0.000001
  H      0.287817    0.603511   -0.000001

 Total Charge           Charge          ....    0
 Multiplicity           Mult            ....    1
 Number of Electrons    NEL             ....    8
 Basis Dimension        Dim             ....   13

ORBITAL ENERGIES
----------------

  NO   OCC          E(Eh)            E(eV)
   0   2.0000     -11.177049      -304.1430
   1   2.0000      -0.848727       -23.0950
   2   2.0000      -0.633583       -17.2407
   3   1.1404      -0.130792        -3.5590
   4   0.8596      -0.069223        -1.8837
   5   0.0000       0.262811         7.1515
   6   0.0000       0.389150        10.5893
   7   0.0000       0.961162        26.1546
   8   0.0000       1.003484        27.3062
   9   0.0000       1.022095        27.8126

MULLIKEN ATOMIC CHARGES
-----------------------
   0 C :   -0.558876
   1 H :    0.279438
   2 H :    0.279438
Sum of atomic charges:   -0.0000000

LOEWDIN ATOMIC CHARGES
----------------------
   0 C :   -0.284631
   1 H :    0.142316
   2 H :    0.142316

  Mayer bond orders larger than 0.100000
B(  0-C ,  1-H ) :   0.8994 B(  0-C ,  2-H ) :   0.8994

FINAL SINGLE POINT ENERGY       -38.630362691063

DIPOLE MOMENT
-------------
                                X             Y             Z
Electronic contribution:      0.01051       0.01486       0.00000
Nuclear contribution   :     -0.12819      -0.18129      -0.00001
                        -----------------------------------------
Total Dipole Moment    :     -0.11769      -0.16643      -0.00000
                        -----------------------------------------
Magnitude (a.u.)       :      0.20383
Magnitude (Debye)      :      0.51811

Rotational constants in cm-1:   511.358899     7.592495     7.481413
Rotational constants in MHz : 15330154.133261 227617.271532 224287.127326

                             ****ORCA TERMINATED NORMALLY****
TOTAL RUN TIME: 0 days 0 hours 0 minutes 4 seconds 223 msec
