                         Program Version 5.0.1 -  RELEASE  -
|  1> %pal nprocs 28 end
|  2> %maxcore 1000
|  3> ! hf 3-21g engrad
|  4> !moread
|  5>  %moinp "JOBS/b.gbw"
|  6>
|  7>
|  8>  *xyz 0 1
|  9> c  1.2244674707191416  0.11043349049493156  2.1778534463268067e-06
| 10> h  2.001544084218138  -0.6083083864627526  -1.0889312133188265e-06
| 11> h  0.2878174656612092  0.603510760099954  -1.0889029953616748e-06
| 12> *
| 13> % casscf nel 2 norb 2 nroots 2 weights[0] = 0,1
| 14> maxiter 200
| 15> orbstep superci_pt
| 16> switchstep diis
| 17> shiftup 2.0
| 18> shiftdn 2.0
| 19> minshift 0.6
| 20> end
| 21>
| 22>
| 23>                          ****END OF INPUT****

CARTESIAN COORDINATES (ANGSTROEM)
---------------------------------
  C      1.224467    0.110433    0.000002
  H      2.001544   -0.608308   -0.000001
  H      0.287817    0.603511   -0.000001

 Total Charge           Charge          ....    0
 Multiplicity           Mult            ....    1
 Number of Electrons    NEL             ....    8
 Basis Dimension        Dim             ....   13

ORBITAL ENERGIES
----------------

  NO   OCC          E(Eh)            E(eV)
   0   2.0000     -11.176841      -304.1373
   1   2.0000      -0.848408       -23.0863
   2   2.0000      -0.633461       -17.2373
   3   1.0000      -0.100088        -2.7235
   4   1.0000      -0.100088        -2.7235
   5   0.0000       0.263022         7.1572
   6   0.0000       0.389196        10.5906
   7   0.0000       0.962047        26.1786
   8   0.0000       1.002930        27.2911
   9   0.0000       1.022011        27.8103

MULLIKEN ATOMIC CHARGES
-----------------------
   0 C :   -0.561102
   1 H :    0.280551
   2 H :    0.280551
Sum of atomic charges:   -0.0000000

LOEWDIN ATOMIC CHARGES
----------------------
   0 C :   -0.285845
   1 H :    0.142922
   2 H :    0.142922

  Mayer bond orders larger than 0.100000
B(  0-C ,  1-H ) :   0.8990 B(  0-C ,  2-H ) :   0.8990

FINAL SINGLE POINT ENERGY       -38.629996239780

DIPOLE MOMENT
-------------
                                X             Y             Z
Electronic contribution:      0.02419       0.03420       0.00000
Nuclear contribution   :     -0.12819      -0.18129      -0.00001
                        -----------------------------------------
Total Dipole Moment    :     -0.10401      -0.14708      -0.00000
                        -----------------------------------------
Magnitude (a.u.)       :      0.18014
Magnitude (Debye)      :      0.45788

Rotational constants in cm-1:   511.358899     7.592495     7.481413
Rotational constants in MHz : 15330154.133261 227617.271532 224287.127326

                             ****ORCA TERMINATED NORMALLY****
TOTAL RUN TIME: 0 days 0 hours 0 minutes 4 seconds 264 msec
