                         Program Version 5.0.1 -  RELEASE  -
|  1> %pal nprocs 28 end
|  2> %maxcore 1000
|  3> ! hf 3-21g engrad
|  4> !moread
|  5>  %moinp "JOBS/a.gbw"
|  6>
|  7>
|  8>  *xyz 0 1
|  9> c  1.225024039707682  0.11122072064046927  2.1212741815459464e-06
| 10> h  2.0011099013467577  -0.6085917652186166  -1.060641105872206e-06
| 11> h  0.28769507954387785  0.6030069087102594  -1.0606133796226545e-06
| 12> *
| 13> % casscf nel 2 norb 2 nroots 2 weights[0] = 1,0
| 14> maxiter 200
| 15> orbstep superci_pt
| 16> switchstep diis
| 17> shiftup 2.0
| 18> shiftdn 2.0
| 19> minshift 0.6
| 20> end
| 21>
| 22>
| 23>                          ****END OF INPUT****

CARTESIAN COORDINATES (ANGSTROEM)
---------------------------------
  C      1.225024    0.111221    0.000002
  H      2.001110   -0.608592   -0.000001
  H      0.287695    0.603007   -0.000001

 Total Charge           Charge          ....    0
 Multiplicity           Mult            ....    1
 Number of Electrons    NEL             ....    8
 Basis Dimension        Dim             ....   13

ORBITAL ENERGIES
----------------

  NO   OCC          E(Eh)            E(eV)
   0   2.0000     -11.177086      -304.1440
   1   2.0000      -0.848786       -23.0966
   2   2.0000      -0.633531       -17.2392
   3   1.1433      -0.131489        -3.5780
   4   0.8567      -0.068644        -1.8679
   5   0.0000       0.262900         7.1539
   6   0.0000       0.389124        10.5886
   7   0.0000       0.960986        26.1498
   8   0.0000       1.003475        27.3059
   9   0.0000       1.022384        27.8205

MULLIKEN ATOMIC CHARGES
-----------------------
   0 C :   -0.558323
   1 H :    0.279162
   2 H :    0.279162
Sum of atomic charges:    0.0000000

LOEWDIN ATOMIC CHARGES
----------------------
   0 C :   -0.284390
   1 H :    0.142195
   2 H :    0.142195

  Mayer bond orders larger than 0.100000
B(  0-C ,  1-H ) :   0.8995 B(  0-C ,  2-H ) :   0.8995

FINAL SINGLE POINT ENERGY       -38.630394257205

DIPOLE MOMENT
-------------
                                X             Y             Z
Electronic contribution:      0.01056       0.01493       0.00000
Nuclear contribution   :     -0.12953      -0.18318      -0.00001
                        -----------------------------------------
Total Dipole Moment    :     -0.11897      -0.16825      -0.00000
                        -----------------------------------------
Magnitude (a.u.)       :      0.20606
Magnitude (Debye)      :      0.52377

Rotational constants in cm-1:   500.822000     7.595258     7.481793
Rotational constants in MHz : 15014265.843537 227700.119031 224298.501134

                             ****ORCA TERMINATED NORMALLY****
TOTAL RUN TIME: 0 days 0 hours 0 minutes 4 seconds 381 msec
