                         Program Version 5.0.1 -  RELEASE  -
|  1> %pal nprocs 28 end
|  2> %maxcore 1000
|  3> ! hf 3-21g engrad
|  4> !moread
|  5>  %moinp "JOBS/b.gbw"
|  6>
|  7>
|  8>  *xyz 0 1
|  9> c  1.225024039707682  0.11122072064046927  2.1212741815459464e-06
| 10> h  2.0011099013467577  -0.6085917652186166  -1.060641105872206e-06
| 11> h  0.28769507954387785  0.6030069087102594  -1.0606133796226545e-06
| 12> *
| 13> % casscf nel 2 norb 2 nroots 2 weights[0] = 0,1
| 14> maxiter 200
| 15> orbstep superci_pt
| 16> switchstep diis
| 17> shiftup 2.0
| 18> shiftdn 2.0
| 19> minshift 0.6
| 20> end
| 21>
| 22>
| 23>                          ****END OF INPUT****

CARTESIAN COORDINATES (ANGSTROEM)
---------------------------------
  C      1.225024    0.111221    0.000002
  H      2.001110   -0.608592   -0.000001
  H      0.287695    0.603007   -0.000001

 Total Charge           Charge          ....    0
 Multiplicity           Mult            ....    1
 Number of Electrons    NEL             ....    8
 Basis Dimension        Dim             ....   13

ORBITAL ENERGIES
----------------

  NO   OCC          E(Eh)            E(eV)
   0   2.0000     -11.176868      -304.1380
   1   2.0000      -0.848453       -23.0876
   2   2.0000      -0.633404       -17.2358
   3   1.0000      -0.100149        -2.7252
   4   1.0000      -0.100149        -2.7252
   5   0.0000       0.263119         7.1598
   6   0.0000       0.389171        10.5899
   7   0.0000       0.961898        26.1746
   8   0.0000       1.002914        27.2907
   9   0.0000       1.022291        27.8180

MULLIKEN ATOMIC CHARGES
-----------------------
   0 C :   -0.560635
   1 H :    0.280318
   2 H :    0.280318
Sum of atomic charges:   -0.0000000

LOEWDIN ATOMIC CHARGES
----------------------
   0 C :   -0.285650
   1 H :    0.142825
   2 H :    0.142825

  Mayer bond orders larger than 0.100000
B(  0-C ,  1-H ) :   0.8990 B(  0-C ,  2-H ) :   0.8990

FINAL SINGLE POINT ENERGY       -38.630012581307

DIPOLE MOMENT
-------------
                                X             Y             Z
Electronic contribution:      0.02466       0.03487       0.00000
Nuclear contribution   :     -0.12953      -0.18318      -0.00001
                        -----------------------------------------
Total Dipole Moment    :     -0.10488      -0.14831      -0.00000
                        -----------------------------------------
Magnitude (a.u.)       :      0.18165
Magnitude (Debye)      :      0.46172

Rotational constants in cm-1:   500.822000     7.595258     7.481793
Rotational constants in MHz : 15014265.843537 227700.119031 224298.501134

                             ****ORCA TERMINATED NORMALLY****
TOTAL RUN TIME: 0 days 0 hours 0 minutes 4 seconds 274 msec
