                         Program Version 5.0.1 -  RELEASE  -
|  1> %pal nprocs 28 end
|  2> %maxcore 1000
|  3> ! hf 3-21g engrad
|  4> !moread
|  5>  %moinp "JOBS/a.gbw"
|  6>
|  7>
|  8>  *xyz 0 1
|  9> c  1.2214314208972419  0.10614009266491707  2.2959157131923223e-06
| 10> h  2.0036231533843125  -0.6065584514077804  -1.147962194794892e-06
| 11> h  0.28877444631786503  0.606054222874842  -1.1479337538462945e-06
| 12> *
| 13> % casscf nel 2 norb 2 nroots 2 weights[0] = 1,0
| 14> maxiter 200
| 15> orbstep superci_pt
| 16> switchstep diis
| 17> shiftup 2.0
| 18> shiftdn 2.0
| 19> minshift 0.6
| 20> end
| 21>
| 22>
| 23>                          ****END OF INPUT****

CARTESIAN COORDINATES (ANGSTROEM)
---------------------------------
  C      1.221431    0.106140    0.000002
  H      2.003623   -0.606558   -0.000001
  H      0.288774    0.606054   -0.000001

 Total Charge           Charge          ....    0
 Multiplicity           Mult            ....    1
 Number of Electrons    NEL             ....    8
 Basis Dimension        Dim             ....   13

ORBITAL ENERGIES
----------------

  NO   OCC          E(Eh)            E(eV)
   0   2.0000     -11.176776      -304.1355
   1   2.0000      -0.848495       -23.0887
   2   2.0000      -0.633970       -17.2512
   3   1.1255      -0.127214        -3.4617
   4   0.8745      -0.072175        -1.9640
   5   0.0000       0.262491         7.1427
   6   0.0000       0.389353        10.5948
   7   0.0000       0.962075        26.1794
   8   0.0000       1.003542        27.3078
   9   0.0000       1.020457        27.7681

MULLIKEN ATOMIC CHARGES
-----------------------
   0 C :   -0.561964
   1 H :    0.280982
   2 H :    0.280982
Sum of atomic charges:    0.0000000

LOEWDIN ATOMIC CHARGES
----------------------
   0 C :   -0.285885
   1 H :    0.142943
   2 H :    0.142943

  Mayer bond orders larger than 0.100000
B(  0-C ,  1-H ) :   0.8993 B(  0-C ,  2-H ) :   0.8993

FINAL SINGLE POINT ENERGY       -38.630200704216

DIPOLE MOMENT
-------------
                                X             Y             Z
Electronic contribution:      0.01067       0.01509       0.00000
Nuclear contribution   :     -0.12087      -0.17094      -0.00001
                        -----------------------------------------
Total Dipole Moment    :     -0.11021      -0.15585      -0.00001
                        -----------------------------------------
Magnitude (a.u.)       :      0.19088
Magnitude (Debye)      :      0.48518

Rotational constants in cm-1:   575.139938     7.582562     7.483895
Rotational constants in MHz : 17242261.582572 227319.483460 224361.533446

                             ****ORCA TERMINATED NORMALLY****
TOTAL RUN TIME: 0 days 0 hours 0 minutes 4 seconds 241 msec
