                         Program Version 5.0.1 -  RELEASE  -
|  1> %pal nprocs 28 end
|  2> %maxcore 1000
|  3> ! hf 3-21g engrad
|  4> !moread
|  5>  %moinp "JOBS/a.gbw"
|  6>
|  7>
|  8>  *xyz 0 1
|  9> c  1.219376636675013  0.10323348283309358  2.1157327002784514e-06
| 10> h  2.005228743291535  -0.6055140155824995  -1.0578717443888079e-06
| 11> h  0.2892236406459443  0.6079163968959969  -1.0578392155831973e-06
| 12> *
| 13> % casscf nel 2 norb 2 nroots 2 weights[0] = 1,0
| 14> maxiter 200
| 15> orbstep superci_pt
| 16> switchstep diis
| 17> shiftup 2.0
| 18> shiftdn 2.0
| 19> minshift 0.6
| 20> end
| 21>
| 22>
| 23>                          ****END OF INPUT****

CARTESIAN COORDINATES (ANGSTROEM)
---------------------------------
  C      1.219377    0.103233    0.000002
  H      2.005229   -0.605514   -0.000001
  H      0.289224    0.607916   -0.000001

 Total Charge           Charge          ....    0
 Multiplicity           Mult            ....    1
 Number of Electrons    NEL             ....    8
 Basis Dimension        Dim             ....   13

ORBITAL ENERGIES
----------------

  NO   OCC          E(Eh)            E(eV)
   0   2.0000     -11.176647      -304.1320
   1   2.0000      -0.848259       -23.0823
   2   2.0000      -0.634109       -17.2550
   3   1.1157      -0.124867        -3.3978
   4   0.8843      -0.074102        -2.0164
   5   0.0000       0.262148         7.1334
   6   0.0000       0.389447        10.5974
   7   0.0000       0.962799        26.1991
   8   0.0000       1.003573        27.3086
   9   0.0000       1.019385        27.7389

MULLIKEN ATOMIC CHARGES
-----------------------
   0 C :   -0.563957
   1 H :    0.281979
   2 H :    0.281979
Sum of atomic charges:    0.0000000

LOEWDIN ATOMIC CHARGES
----------------------
   0 C :   -0.286790
   1 H :    0.143395
   2 H :    0.143395

  Mayer bond orders larger than 0.100000
B(  0-C ,  1-H ) :   0.8993 B(  0-C ,  2-H ) :   0.8993

FINAL SINGLE POINT ENERGY       -38.630098446674

DIPOLE MOMENT
-------------
                                X             Y             Z
Electronic contribution:      0.01069       0.01512       0.00000
Nuclear contribution   :     -0.11592      -0.16393      -0.00001
                        -----------------------------------------
Total Dipole Moment    :     -0.10523      -0.14881      -0.00000
                        -----------------------------------------
Magnitude (a.u.)       :      0.18226
Magnitude (Debye)      :      0.46326

Rotational constants in cm-1:   625.337605     7.572346     7.481747
Rotational constants in MHz : 18747149.764934 227013.208143 224297.146478

                             ****ORCA TERMINATED NORMALLY****
TOTAL RUN TIME: 0 days 0 hours 0 minutes 4 seconds 340 msec
