                         Program Version 5.0.1 -  RELEASE  -
|  1> %pal nprocs 28 end
|  2> %maxcore 1000
|  3> ! hf 3-21g engrad
|  4> !moread
|  5>  %moinp "JOBS/a.gbw"
|  6>
|  7>
|  8>  *xyz 0 1
|  9> c  1.2102400751122218  0.09031256820072488  3.206751880671212e-06
| 10> h  2.0112643152374563  -0.6000911541120046  -1.603377449929995e-06
| 11> h  0.2923246302366386  0.6154144500211509  -1.6033539353615192e-06
| 12> *
| 13> % casscf nel 2 norb 2 nroots 2 weights[0] = 1,0
| 14> maxiter 200
| 15> orbstep superci_pt
| 16> switchstep diis
| 17> shiftup 2.0
| 18> shiftdn 2.0
| 19> minshift 0.6
| 20> end
| 21>
| 22>
| 23>                          ****END OF INPUT****

CARTESIAN COORDINATES (ANGSTROEM)
---------------------------------
  C      1.210240    0.090313    0.000003
  H      2.011264   -0.600091   -0.000002
  H      0.292325    0.615414   -0.000002

 Total Charge           Charge          ....    0
 Multiplicity           Mult            ....    1
 Number of Electrons    NEL             ....    8
 Basis Dimension        Dim             ....   13

ORBITAL ENERGIES
----------------

  NO   OCC          E(Eh)            E(eV)
   0   2.0000     -11.175977      -304.1138
   1   2.0000      -0.847675       -23.0664
   2   2.0000      -0.635082       -17.2815
   3   1.0768      -0.115519        -3.1434
   4   0.9232      -0.081808        -2.2261
   5   0.0000       0.261269         7.1095
   6   0.0000       0.389940        10.6108
   7   0.0000       0.965554        26.2741
   8   0.0000       1.003710        27.3123
   9   0.0000       1.014839        27.6152

MULLIKEN ATOMIC CHARGES
-----------------------
   0 C :   -0.571940
   1 H :    0.285970
   2 H :    0.285970
Sum of atomic charges:    0.0000000

LOEWDIN ATOMIC CHARGES
----------------------
   0 C :   -0.289935
   1 H :    0.144967
   2 H :    0.144968

  Mayer bond orders larger than 0.100000
B(  0-C ,  1-H ) :   0.8990 B(  0-C ,  2-H ) :   0.8990

FINAL SINGLE POINT ENERGY       -38.629721423762

DIPOLE MOMENT
-------------
                                X             Y             Z
Electronic contribution:      0.01016       0.01437       0.00000
Nuclear contribution   :     -0.09390      -0.13279      -0.00001
                        -----------------------------------------
Total Dipole Moment    :     -0.08374      -0.11842      -0.00001
                        -----------------------------------------
Magnitude (a.u.)       :      0.14504
Magnitude (Debye)      :      0.36866

Rotational constants in cm-1:   952.999326     7.546512     7.487223
Rotational constants in MHz : 28570201.055697 226238.744379 224461.303493

                             ****ORCA TERMINATED NORMALLY****
TOTAL RUN TIME: 0 days 0 hours 0 minutes 4 seconds 279 msec
