                         Program Version 5.0.1 -  RELEASE  -
|  1> %pal nprocs 28 end
|  2> %maxcore 1000
|  3> ! hf 3-21g engrad
|  4> !moread
|  5>  %moinp "JOBS/b.gbw"
|  6>
|  7>
|  8>  *xyz 0 1
|  9> c  1.2102400751122218  0.09031256820072488  3.206751880671212e-06
| 10> h  2.0112643152374563  -0.6000911541120046  -1.603377449929995e-06
| 11> h  0.2923246302366386  0.6154144500211509  -1.6033539353615192e-06
| 12> *
| 13> % casscf nel 2 norb 2 nroots 2 weights[0] = 0,1
| 14> maxiter 200
| 15> orbstep superci_pt
| 16> switchstep diis
| 17> shiftup 2.0
| 18> shiftdn 2.0
| 19> minshift 0.6
| 20> end
| 21>
| 22>
| 23>                          ****END OF INPUT****

CARTESIAN COORDINATES (ANGSTROEM)
---------------------------------
  C      1.210240    0.090313    0.000003
  H      2.011264   -0.600091   -0.000002
  H      0.292325    0.615414   -0.000002

 Total Charge           Charge          ....    0
 Multiplicity           Mult            ....    1
 Number of Electrons    NEL             ....    8
 Basis Dimension        Dim             ....   13

ORBITAL ENERGIES
----------------

  NO   OCC          E(Eh)            E(eV)
   0   2.0000     -11.175914      -304.1121
   1   2.0000      -0.847579       -23.0638
   2   2.0000      -0.635046       -17.2805
   3   1.0000      -0.098687        -2.6854
   4   1.0000      -0.098687        -2.6854
   5   0.0000       0.261334         7.1113
   6   0.0000       0.389955        10.6112
   7   0.0000       0.965890        26.2832
   8   0.0000       1.003376        27.3032
   9   0.0000       1.014912        27.6172

MULLIKEN ATOMIC CHARGES
-----------------------
   0 C :   -0.572624
   1 H :    0.286312
   2 H :    0.286312
Sum of atomic charges:   -0.0000000

LOEWDIN ATOMIC CHARGES
----------------------
   0 C :   -0.290300
   1 H :    0.145150
   2 H :    0.145150

  Mayer bond orders larger than 0.100000
B(  0-C ,  1-H ) :   0.8989 B(  0-C ,  2-H ) :   0.8989

FINAL SINGLE POINT ENERGY       -38.629613600721

DIPOLE MOMENT
-------------
                                X             Y             Z
Electronic contribution:      0.01578       0.02231       0.00000
Nuclear contribution   :     -0.09390      -0.13279      -0.00001
                        -----------------------------------------
Total Dipole Moment    :     -0.07812      -0.11048      -0.00001
                        -----------------------------------------
Magnitude (a.u.)       :      0.13531
Magnitude (Debye)      :      0.34393

Rotational constants in cm-1:   952.999326     7.546512     7.487223
Rotational constants in MHz : 28570201.055697 226238.744379 224461.303493

                             ****ORCA TERMINATED NORMALLY****
TOTAL RUN TIME: 0 days 0 hours 0 minutes 4 seconds 377 msec
