                         Program Version 5.0.1 -  RELEASE  -
|  1> %pal nprocs 28 end
|  2> %maxcore 1000
|  3> ! hf 3-21g engrad
|  4> !moread
|  5>  %moinp "JOBS/b.gbw"
|  6>
|  7>
|  8>  *xyz 0 1
|  9> c  1.206015888803436  0.08433980868725979  3.849250502719862e-06
| 10> h  2.013924288383667  -0.5974922101771474  -1.9246236024657458e-06
| 11> h  0.2938888433758271  0.6187882655636198  -1.9246096879137836e-06
| 12> *
| 13> % casscf nel 2 norb 2 nroots 2 weights[0] = 0,1
| 14> maxiter 200
| 15> orbstep superci_pt
| 16> switchstep diis
| 17> shiftup 2.0
| 18> shiftdn 2.0
| 19> minshift 0.6
| 20> end
| 21>
| 22>
| 23>                          ****END OF INPUT****

CARTESIAN COORDINATES (ANGSTROEM)
---------------------------------
  C      1.206016    0.084340    0.000004
  H      2.013924   -0.597492   -0.000002
  H      0.293889    0.618788   -0.000002

 Total Charge           Charge          ....    0
 Multiplicity           Mult            ....    1
 Number of Electrons    NEL             ....    8
 Basis Dimension        Dim             ....   13

ORBITAL ENERGIES
----------------

  NO   OCC          E(Eh)            E(eV)
   0   2.0000     -11.175682      -304.1058
   1   2.0000      -0.847407       -23.0591
   2   2.0000      -0.635460       -17.2917
   3   1.0000      -0.098354        -2.6764
   4   1.0000      -0.098354        -2.6764
   5   0.0000       0.260971         7.1014
   6   0.0000       0.390142        10.6163
   7   0.0000       0.967007        26.3136
   8   0.0000       1.003484        27.3062
   9   0.0000       1.012992        27.5649

MULLIKEN ATOMIC CHARGES
-----------------------
   0 C :   -0.575508
   1 H :    0.287754
   2 H :    0.287754
Sum of atomic charges:    0.0000000

LOEWDIN ATOMIC CHARGES
----------------------
   0 C :   -0.291348
   1 H :    0.145674
   2 H :    0.145674

  Mayer bond orders larger than 0.100000
B(  0-C ,  1-H ) :   0.8989 B(  0-C ,  2-H ) :   0.8989

FINAL SINGLE POINT ENERGY       -38.629515478839

DIPOLE MOMENT
-------------
                                X             Y             Z
Electronic contribution:      0.01360       0.01924       0.00000
Nuclear contribution   :     -0.08372      -0.11840      -0.00001
                        -----------------------------------------
Total Dipole Moment    :     -0.07012      -0.09916      -0.00001
                        -----------------------------------------
Magnitude (a.u.)       :      0.12145
Magnitude (Debye)      :      0.30870

Rotational constants in cm-1:  1198.822963     7.536900     7.489812
Rotational constants in MHz : 35939808.291384 225950.578434 224538.920958

                             ****ORCA TERMINATED NORMALLY****
TOTAL RUN TIME: 0 days 0 hours 0 minutes 4 seconds 231 msec
