                         Program Version 5.0.1 -  RELEASE  -
|  1> %pal nprocs 28 end
|  2> %maxcore 1000
|  3> ! hf 3-21g engrad
|  4> !moread
|  5>  %moinp "JOBS/b.gbw"
|  6>
|  7>
|  8>  *xyz 0 1
|  9> c  1.2019817237848023  0.07863479107787506  4.469551434044912e-06
| 10> h  2.0164485130584757  -0.594998303836697  -2.234769860231733e-06
| 11> h  0.29539878369942074  0.6219993768002826  -2.2347639239864917e-06
| 12> *
| 13> % casscf nel 2 norb 2 nroots 2 weights[0] = 0,1
| 14> maxiter 200
| 15> orbstep superci_pt
| 16> switchstep diis
| 17> shiftup 2.0
| 18> shiftdn 2.0
| 19> minshift 0.6
| 20> end
| 21>
| 22>
| 23>                          ****END OF INPUT****

CARTESIAN COORDINATES (ANGSTROEM)
---------------------------------
  C      1.201982    0.078635    0.000004
  H      2.016449   -0.594998   -0.000002
  H      0.295399    0.621999   -0.000002

 Total Charge           Charge          ....    0
 Multiplicity           Mult            ....    1
 Number of Electrons    NEL             ....    8
 Basis Dimension        Dim             ....   13

ORBITAL ENERGIES
----------------

  NO   OCC          E(Eh)            E(eV)
   0   2.0000     -11.175487      -304.1005
   1   2.0000      -0.847238       -23.0545
   2   2.0000      -0.635787       -17.3006
   3   1.0000      -0.098067        -2.6685
   4   1.0000      -0.098067        -2.6685
   5   0.0000       0.260636         7.0923
   6   0.0000       0.390295        10.6205
   7   0.0000       0.968082        26.3429
   8   0.0000       1.003579        27.3088
   9   0.0000       1.011264        27.5179

MULLIKEN ATOMIC CHARGES
-----------------------
   0 C :   -0.578025
   1 H :    0.289013
   2 H :    0.289013
Sum of atomic charges:   -0.0000000

LOEWDIN ATOMIC CHARGES
----------------------
   0 C :   -0.292279
   1 H :    0.146139
   2 H :    0.146139

  Mayer bond orders larger than 0.100000
B(  0-C ,  1-H ) :   0.8988 B(  0-C ,  2-H ) :   0.8988

FINAL SINGLE POINT ENERGY       -38.629429916035

DIPOLE MOMENT
-------------
                                X             Y             Z
Electronic contribution:      0.01169       0.01653       0.00000
Nuclear contribution   :     -0.07400      -0.10465      -0.00001
                        -----------------------------------------
Total Dipole Moment    :     -0.06231      -0.08812      -0.00001
                        -----------------------------------------
Magnitude (a.u.)       :      0.10793
Magnitude (Debye)      :      0.27433

Rotational constants in cm-1:  1534.526131     7.528019     7.491269
Rotational constants in MHz : 46003936.065773 225684.335864 224582.587266

                             ****ORCA TERMINATED NORMALLY****
TOTAL RUN TIME: 0 days 0 hours 0 minutes 4 seconds 305 msec
