                         Program Version 5.0.1 -  RELEASE  -
|  1> %pal nprocs 28 end
|  2> %maxcore 1000
|  3> ! hf 3-21g engrad
|  4> !moread
|  5>  %moinp "JOBS/a.gbw"
|  6>
|  7>
|  8>  *xyz 0 1
|  9> c  1.372875511178397  0.3203089565253817  -4.660305774408043e-12
| 10> h  1.8208140882099206  -0.6379188127483223  2.3301528872040214e-12
| 11> h  0.3201394212202673  0.42324572034694063  2.3301528872040214e-12
| 12> *
| 13> % casscf nel 2 norb 2 nroots 2 weights[0] = 1,0
| 14> maxiter 200
| 15> orbstep superci_pt
| 16> switchstep diis
| 17> shiftup 2.0
| 18> shiftdn 2.0
| 19> minshift 0.6
| 20> end
| 21>
| 22>
| 23>                          ****END OF INPUT****

CARTESIAN COORDINATES (ANGSTROEM)
---------------------------------
  C      1.372876    0.320309   -0.000000
  H      1.820814   -0.637919    0.000000
  H      0.320139    0.423246    0.000000

 Total Charge           Charge          ....    0
 Multiplicity           Mult            ....    1
 Number of Electrons    NEL             ....    8
 Basis Dimension        Dim             ....   13

ORBITAL ENERGIES
----------------

  NO   OCC          E(Eh)            E(eV)
   0   2.0000     -11.200786      -304.7889
   1   2.0000      -0.871061       -23.7028
   2   2.0000      -0.601260       -16.3611
   3   1.8618      -0.343299        -9.3417
   4   0.1382       0.074786         2.0350
   5   0.0000       0.298081         8.1112
   6   0.0000       0.368867        10.0374
   7   0.0000       0.939930        25.5768
   8   0.0000       0.958999        26.0957
   9   0.0000       0.986555        26.8455

MULLIKEN ATOMIC CHARGES
-----------------------
   0 C :   -0.349158
   1 H :    0.174579
   2 H :    0.174579
Sum of atomic charges:    0.0000000

LOEWDIN ATOMIC CHARGES
----------------------
   0 C :   -0.143978
   1 H :    0.071989
   2 H :    0.071989

  Mayer bond orders larger than 0.100000
B(  0-C ,  1-H ) :   0.9120 B(  0-C ,  2-H ) :   0.9120

FINAL SINGLE POINT ENERGY       -38.658795942665

DIPOLE MOMENT
-------------
                                X             Y             Z
Electronic contribution:      0.05384       0.07613       0.00000
Nuclear contribution   :     -0.48586      -0.68709       0.00000
                        -----------------------------------------
Total Dipole Moment    :     -0.43202      -0.61096       0.00000
                        -----------------------------------------
Magnitude (a.u.)       :      0.74827
Magnitude (Debye)      :      1.90195

Rotational constants in cm-1:    35.597995     9.901353     7.746667
Rotational constants in MHz : 1067201.029677 296835.102312 232239.248949

                             ****ORCA TERMINATED NORMALLY****
TOTAL RUN TIME: 0 days 0 hours 0 minutes 4 seconds 409 msec
