                         Program Version 5.0.1 -  RELEASE  -
|  1> %pal nprocs 28 end
|  2> %maxcore 1000
|  3> ! hf 3-21g engrad
|  4> !moread
|  5>  %moinp "JOBS/a.gbw"
|  6>
|  7>
|  8>  *xyz 0 1
|  9> c  1.1958355090704071  0.069942953231235  5.2512937213176446e-06
| 10> h  2.0203367887974872  -0.5912288014246473  -2.6256364900606576e-06
| 11> h  0.29765672264449616  0.6269217121942237  -2.6256416828105382e-06
| 12> *
| 13> % casscf nel 2 norb 2 nroots 2 weights[0] = 1,0
| 14> maxiter 200
| 15> orbstep superci_pt
| 16> switchstep diis
| 17> shiftup 2.0
| 18> shiftdn 2.0
| 19> minshift 0.6
| 20> end
| 21>
| 22>
| 23>                          ****END OF INPUT****

CARTESIAN COORDINATES (ANGSTROEM)
---------------------------------
  C      1.195836    0.069943    0.000005
  H      2.020337   -0.591229   -0.000003
  H      0.297657    0.626922   -0.000003

 Total Charge           Charge          ....    0
 Multiplicity           Mult            ....    1
 Number of Electrons    NEL             ....    8
 Basis Dimension        Dim             ....   13

ORBITAL ENERGIES
----------------

  NO   OCC          E(Eh)            E(eV)
   0   2.0000     -11.175273      -304.0947
   1   2.0000      -0.846962       -23.0470
   2   2.0000      -0.636126       -17.3099
   3   1.0308      -0.104463        -2.8426
   4   0.9692      -0.090906        -2.4737
   5   0.0000       0.260091         7.0774
   6   0.0000       0.390467        10.6251
   7   0.0000       0.969668        26.3860
   8   0.0000       1.003843        27.3160
   9   0.0000       1.008785        27.4504

MULLIKEN ATOMIC CHARGES
-----------------------
   0 C :   -0.581237
   1 H :    0.290618
   2 H :    0.290618
Sum of atomic charges:   -0.0000000

LOEWDIN ATOMIC CHARGES
----------------------
   0 C :   -0.293523
   1 H :    0.146761
   2 H :    0.146761

  Mayer bond orders larger than 0.100000
B(  0-C ,  1-H ) :   0.8987 B(  0-C ,  2-H ) :   0.8987

FINAL SINGLE POINT ENERGY       -38.629333839629

DIPOLE MOMENT
-------------
                                X             Y             Z
Electronic contribution:      0.00763       0.01079       0.00000
Nuclear contribution   :     -0.05919      -0.08370      -0.00001
                        -----------------------------------------
Total Dipole Moment    :     -0.05156      -0.07292      -0.00001
                        -----------------------------------------
Magnitude (a.u.)       :      0.08930
Magnitude (Debye)      :      0.22699

Rotational constants in cm-1:  2398.700819     7.513777     7.490314
Rotational constants in MHz : 71911241.462193 225257.367065 224553.966121

                             ****ORCA TERMINATED NORMALLY****
TOTAL RUN TIME: 0 days 0 hours 0 minutes 4 seconds 226 msec
