                         Program Version 5.0.1 -  RELEASE  -
|  1> %pal nprocs 28 end
|  2> %maxcore 1000
|  3> ! hf 3-21g engrad
|  4> !moread
|  5>  %moinp "JOBS/a.gbw"
|  6>
|  7>
|  8>  *xyz 0 1
|  9> c  1.1946582084803286  0.06827804739034433  5.442721801185273e-06
| 10> h  2.0211252130023594  -0.5905376189335956  -2.721349970350646e-06
| 11> h  0.29804559903076816  0.6278954355405177  -2.721356243999638e-06
| 12> *
| 13> % casscf nel 2 norb 2 nroots 2 weights[0] = 1,0
| 14> maxiter 200
| 15> orbstep superci_pt
| 16> switchstep diis
| 17> shiftup 2.0
| 18> shiftdn 2.0
| 19> minshift 0.6
| 20> end
| 21>
| 22>
| 23>                          ****END OF INPUT****

CARTESIAN COORDINATES (ANGSTROEM)
---------------------------------
  C      1.194658    0.068278    0.000005
  H      2.021125   -0.590538   -0.000003
  H      0.298046    0.627895   -0.000003

 Total Charge           Charge          ....    0
 Multiplicity           Mult            ....    1
 Number of Electrons    NEL             ....    8
 Basis Dimension        Dim             ....   13

ORBITAL ENERGIES
----------------

  NO   OCC          E(Eh)            E(eV)
   0   2.0000     -11.175250      -304.0940
   1   2.0000      -0.846888       -23.0450
   2   2.0000      -0.636147       -17.3104
   3   1.0279      -0.103764        -2.8236
   4   0.9721      -0.091479        -2.4893
   5   0.0000       0.259963         7.0739
   6   0.0000       0.390486        10.6257
   7   0.0000       0.970006        26.3952
   8   0.0000       1.003847        27.3161
   9   0.0000       1.008375        27.4393

MULLIKEN ATOMIC CHARGES
-----------------------
   0 C :   -0.581787
   1 H :    0.290894
   2 H :    0.290894
Sum of atomic charges:    0.0000000

LOEWDIN ATOMIC CHARGES
----------------------
   0 C :   -0.293772
   1 H :    0.146886
   2 H :    0.146886

  Mayer bond orders larger than 0.100000
B(  0-C ,  1-H ) :   0.8987 B(  0-C ,  2-H ) :   0.8987

FINAL SINGLE POINT ENERGY       -38.629311467159

DIPOLE MOMENT
-------------
                                X             Y             Z
Electronic contribution:      0.00729       0.01030       0.00000
Nuclear contribution   :     -0.05635      -0.07969      -0.00001
                        -----------------------------------------
Total Dipole Moment    :     -0.04906      -0.06939      -0.00001
                        -----------------------------------------
Magnitude (a.u.)       :      0.08498
Magnitude (Debye)      :      0.21600

Rotational constants in cm-1:  2646.335526     7.510293     7.489039
Rotational constants in MHz : 79335143.210416 225152.912494 224515.737465

                             ****ORCA TERMINATED NORMALLY****
TOTAL RUN TIME: 0 days 0 hours 0 minutes 4 seconds 275 msec
