                         Program Version 5.0.1 -  RELEASE  -
|  1> %pal nprocs 28 end
|  2> %maxcore 1000
|  3> ! hf 3-21g engrad
|  4> !moread
|  5>  %moinp "JOBS/a.gbw"
|  6>
|  7>
|  8>  *xyz 0 1
|  9> c  1.339211791287375  0.27270240454983263  -1.6079308872422925e-08
| 10> h  1.878062445301543  -0.6426949767042951  8.03833955994945e-09
| 11> h  0.2965547840190929  0.4756284362784625  8.039660697780921e-09
| 12> *
| 13> % casscf nel 2 norb 2 nroots 2 weights[0] = 1,0
| 14> maxiter 200
| 15> orbstep superci_pt
| 16> switchstep diis
| 17> shiftup 2.0
| 18> shiftdn 2.0
| 19> minshift 0.6
| 20> end
| 21>
| 22>
| 23>                          ****END OF INPUT****

CARTESIAN COORDINATES (ANGSTROEM)
---------------------------------
  C      1.339212    0.272702   -0.000000
  H      1.878062   -0.642695    0.000000
  H      0.296555    0.475628    0.000000

 Total Charge           Charge          ....    0
 Multiplicity           Mult            ....    1
 Number of Electrons    NEL             ....    8
 Basis Dimension        Dim             ....   13

ORBITAL ENERGIES
----------------

  NO   OCC          E(Eh)            E(eV)
   0   2.0000     -11.195536      -304.6460
   1   2.0000      -0.872830       -23.7509
   2   2.0000      -0.612053       -16.6548
   3   1.7673      -0.294896        -8.0245
   4   0.2327       0.053541         1.4569
   5   0.0000       0.288422         7.8484
   6   0.0000       0.374684        10.1957
   7   0.0000       0.947682        25.7877
   8   0.0000       0.989216        26.9179
   9   0.0000       0.993934        27.0463

MULLIKEN ATOMIC CHARGES
-----------------------
   0 C :   -0.387007
   1 H :    0.193504
   2 H :    0.193504
Sum of atomic charges:    0.0000000

LOEWDIN ATOMIC CHARGES
----------------------
   0 C :   -0.179662
   1 H :    0.089831
   2 H :    0.089831

  Mayer bond orders larger than 0.100000
B(  0-C ,  1-H ) :   0.9091 B(  0-C ,  2-H ) :   0.9091

FINAL SINGLE POINT ENERGY       -38.650652415715

DIPOLE MOMENT
-------------
                                X             Y             Z
Electronic contribution:      0.01419       0.02006      -0.00000
Nuclear contribution   :     -0.40473      -0.57236       0.00000
                        -----------------------------------------
Total Dipole Moment    :     -0.39054      -0.55229       0.00000
                        -----------------------------------------
Magnitude (a.u.)       :      0.67642
Magnitude (Debye)      :      1.71933

Rotational constants in cm-1:    51.300127     8.915077     7.595168
Rotational constants in MHz : 1537939.105939 267267.282628 227697.402521

                             ****ORCA TERMINATED NORMALLY****
TOTAL RUN TIME: 0 days 0 hours 0 minutes 4 seconds 317 msec
