                         Program Version 5.0.1 -  RELEASE  -
|  1> %pal nprocs 28 end
|  2> %maxcore 1000
|  3> ! hf 3-21g engrad
|  4> !moread
|  5>  %moinp "JOBS/b.gbw"
|  6>
|  7>
|  8>  *xyz 0 1
|  9> c  1.339211791287375  0.27270240454983263  -1.6079308872422925e-08
| 10> h  1.878062445301543  -0.6426949767042951  8.03833955994945e-09
| 11> h  0.2965547840190929  0.4756284362784625  8.039660697780921e-09
| 12> *
| 13> % casscf nel 2 norb 2 nroots 2 weights[0] = 0,1
| 14> maxiter 200
| 15> orbstep superci_pt
| 16> switchstep diis
| 17> shiftup 2.0
| 18> shiftdn 2.0
| 19> minshift 0.6
| 20> end
| 21>
| 22>
| 23>                          ****END OF INPUT****

CARTESIAN COORDINATES (ANGSTROEM)
---------------------------------
  C      1.339212    0.272702   -0.000000
  H      1.878062   -0.642695    0.000000
  H      0.296555    0.475628    0.000000

 Total Charge           Charge          ....    0
 Multiplicity           Mult            ....    1
 Number of Electrons    NEL             ....    8
 Basis Dimension        Dim             ....   13

ORBITAL ENERGIES
----------------

  NO   OCC          E(Eh)            E(eV)
   0   2.0000     -11.187720      -304.4333
   1   2.0000      -0.864196       -23.5160
   2   2.0000      -0.606951       -16.5160
   3   1.0000      -0.122440        -3.3318
   4   1.0000      -0.122440        -3.3318
   5   0.0000       0.294363         8.0100
   6   0.0000       0.375985        10.2311
   7   0.0000       0.955853        26.0101
   8   0.0000       0.986694        26.8493
   9   0.0000       0.997577        27.1455

MULLIKEN ATOMIC CHARGES
-----------------------
   0 C :   -0.460156
   1 H :    0.230078
   2 H :    0.230078
Sum of atomic charges:    0.0000000

LOEWDIN ATOMIC CHARGES
----------------------
   0 C :   -0.227616
   1 H :    0.113808
   2 H :    0.113808

  Mayer bond orders larger than 0.100000
B(  0-C ,  1-H ) :   0.8885 B(  0-C ,  2-H ) :   0.8885

FINAL SINGLE POINT ENERGY       -38.628743030504

DIPOLE MOMENT
-------------
                                X             Y             Z
Electronic contribution:      0.17165       0.24274       0.00000
Nuclear contribution   :     -0.40473      -0.57236       0.00000
                        -----------------------------------------
Total Dipole Moment    :     -0.23308      -0.32962       0.00000
                        -----------------------------------------
Magnitude (a.u.)       :      0.40370
Magnitude (Debye)      :      1.02612

Rotational constants in cm-1:    51.300127     8.915077     7.595168
Rotational constants in MHz : 1537939.105939 267267.282628 227697.402521

                             ****ORCA TERMINATED NORMALLY****
TOTAL RUN TIME: 0 days 0 hours 0 minutes 4 seconds 330 msec
