                         Program Version 5.0.1 -  RELEASE  -
|  1> %pal nprocs 28 end
|  2> %maxcore 1000
|  3> ! hf 3-21g engrad
|  4> !moread
|  5>  %moinp "JOBS/b.gbw"
|  6>
|  7>
|  8>  *xyz 0 1
|  9> c  1.302859673852051  0.22129431933042176  -1.0341946215447866e-08
| 10> h  1.9329968613138688  -0.6429836718877585  5.170271040163645e-09
| 11> h  0.27797248543966757  0.5273252166813368  5.171933818117666e-09
| 12> *
| 13> % casscf nel 2 norb 2 nroots 2 weights[0] = 0,1
| 14> maxiter 200
| 15> orbstep superci_pt
| 16> switchstep diis
| 17> shiftup 2.0
| 18> shiftdn 2.0
| 19> minshift 0.6
| 20> end
| 21>
| 22>
| 23>                          ****END OF INPUT****

CARTESIAN COORDINATES (ANGSTROEM)
---------------------------------
  C      1.302860    0.221294   -0.000000
  H      1.932997   -0.642984    0.000000
  H      0.277972    0.527325    0.000000

 Total Charge           Charge          ....    0
 Multiplicity           Mult            ....    1
 Number of Electrons    NEL             ....    8
 Basis Dimension        Dim             ....   13

ORBITAL ENERGIES
----------------

  NO   OCC          E(Eh)            E(eV)
   0   2.0000     -11.185301      -304.3675
   1   2.0000      -0.855066       -23.2675
   2   2.0000      -0.615582       -16.7508
   3   1.0000      -0.113539        -3.0895
   4   1.0000      -0.113539        -3.0895
   5   0.0000       0.278903         7.5893
   6   0.0000       0.380145        10.3443
   7   0.0000       0.953478        25.9455
   8   0.0000       0.999175        27.1889
   9   0.0000       1.055297        28.7161

MULLIKEN ATOMIC CHARGES
-----------------------
   0 C :   -0.484942
   1 H :    0.242471
   2 H :    0.242471
Sum of atomic charges:   -0.0000000

LOEWDIN ATOMIC CHARGES
----------------------
   0 C :   -0.250010
   1 H :    0.125005
   2 H :    0.125005

  Mayer bond orders larger than 0.100000
B(  0-C ,  1-H ) :   0.8931 B(  0-C ,  2-H ) :   0.8931

FINAL SINGLE POINT ENERGY       -38.631204833806

DIPOLE MOMENT
-------------
                                X             Y             Z
Electronic contribution:      0.11097       0.15692      -0.00000
Nuclear contribution   :     -0.31712      -0.44846       0.00000
                        -----------------------------------------
Total Dipole Moment    :     -0.20615      -0.29154       0.00000
                        -----------------------------------------
Magnitude (a.u.)       :      0.35706
Magnitude (Debye)      :      0.90758

Rotational constants in cm-1:    83.560433     8.140647     7.417971
Rotational constants in MHz : 2505078.764412 244050.451008 222385.182492

                             ****ORCA TERMINATED NORMALLY****
TOTAL RUN TIME: 0 days 0 hours 0 minutes 4 seconds 243 msec
