                         Program Version 5.0.1 -  RELEASE  -
|  1> %pal nprocs 28 end
|  2> %maxcore 1000
|  3> ! hf 3-21g engrad
|  4> !moread
|  5>  %moinp "JOBS/a.gbw"
|  6>
|  7>
|  8>  *xyz 0 1
|  9> c  1.30196359657169  0.22002857239354445  7.54771050782152e-10
| 10> h  1.947231033312743  -0.6520995169291978  -3.7797000433388594e-10
| 11> h  0.2646343907215185  0.5377068086595289  -3.759737346174121e-10
| 12> *
| 13> % casscf nel 2 norb 2 nroots 2 weights[0] = 1,0
| 14> maxiter 200
| 15> orbstep superci_pt
| 16> switchstep diis
| 17> shiftup 2.0
| 18> shiftdn 2.0
| 19> minshift 0.6
| 20> end
| 21>
| 22>
| 23>                          ****END OF INPUT****

CARTESIAN COORDINATES (ANGSTROEM)
---------------------------------
  C      1.301964    0.220029    0.000000
  H      1.947231   -0.652100   -0.000000
  H      0.264634    0.537707   -0.000000

 Total Charge           Charge          ....    0
 Multiplicity           Mult            ....    1
 Number of Electrons    NEL             ....    8
 Basis Dimension        Dim             ....   13

ORBITAL ENERGIES
----------------

  NO   OCC          E(Eh)            E(eV)
   0   2.0000     -11.192646      -304.5674
   1   2.0000      -0.855825       -23.2882
   2   2.0000      -0.613011       -16.6809
   3   1.6014      -0.244181        -6.6445
   4   0.3986       0.021007         0.5716
   5   0.0000       0.267466         7.2781
   6   0.0000       0.376553        10.2465
   7   0.0000       0.951019        25.8785
   8   0.0000       0.998293        27.1649
   9   0.0000       1.070558        29.1314

MULLIKEN ATOMIC CHARGES
-----------------------
   0 C :   -0.445402
   1 H :    0.222701
   2 H :    0.222701
Sum of atomic charges:    0.0000000

LOEWDIN ATOMIC CHARGES
----------------------
   0 C :   -0.230206
   1 H :    0.115103
   2 H :    0.115103

  Mayer bond orders larger than 0.100000
B(  0-C ,  1-H ) :   0.9032 B(  0-C ,  2-H ) :   0.9032

FINAL SINGLE POINT ENERGY       -38.640411426832

DIPOLE MOMENT
-------------
                                X             Y             Z
Electronic contribution:     -0.00114      -0.00161       0.00000
Nuclear contribution   :     -0.31496      -0.44541      -0.00000
                        -----------------------------------------
Total Dipole Moment    :     -0.31610      -0.44702      -0.00000
                        -----------------------------------------
Magnitude (a.u.)       :      0.54749
Magnitude (Debye)      :      1.39162

Rotational constants in cm-1:    84.709355     7.876034     7.206037
Rotational constants in MHz : 2539522.584273 236117.550997 216031.554552

                             ****ORCA TERMINATED NORMALLY****
TOTAL RUN TIME: 0 days 0 hours 0 minutes 4 seconds 277 msec
