                         Program Version 5.0.1 -  RELEASE  -
|  1> %pal nprocs 28 end
|  2> %maxcore 1000
|  3> ! hf 3-21g engrad
|  4> !moread
|  5>  %moinp "JOBS/b.gbw"
|  6>
|  7>
|  8>  *xyz 0 1
|  9> c  1.30196359657169  0.22002857239354445  7.54771050782152e-10
| 10> h  1.947231033312743  -0.6520995169291978  -3.7797000433388594e-10
| 11> h  0.2646343907215185  0.5377068086595289  -3.759737346174121e-10
| 12> *
| 13> % casscf nel 2 norb 2 nroots 2 weights[0] = 0,1
| 14> maxiter 200
| 15> orbstep superci_pt
| 16> switchstep diis
| 17> shiftup 2.0
| 18> shiftdn 2.0
| 19> minshift 0.6
| 20> end
| 21>
| 22>
| 23>                          ****END OF INPUT****

CARTESIAN COORDINATES (ANGSTROEM)
---------------------------------
  C      1.301964    0.220029    0.000000
  H      1.947231   -0.652100   -0.000000
  H      0.264634    0.537707   -0.000000

 Total Charge           Charge          ....    0
 Multiplicity           Mult            ....    1
 Number of Electrons    NEL             ....    8
 Basis Dimension        Dim             ....   13

ORBITAL ENERGIES
----------------

  NO   OCC          E(Eh)            E(eV)
   0   2.0000     -11.187831      -304.4364
   1   2.0000      -0.849545       -23.1173
   2   2.0000      -0.610225       -16.6051
   3   1.0000      -0.112864        -3.0712
   4   1.0000      -0.112864        -3.0712
   5   0.0000       0.271230         7.3805
   6   0.0000       0.377390        10.2693
   7   0.0000       0.958000        26.0685
   8   0.0000       0.998836        27.1797
   9   0.0000       1.068495        29.0752

MULLIKEN ATOMIC CHARGES
-----------------------
   0 C :   -0.486683
   1 H :    0.243341
   2 H :    0.243342
Sum of atomic charges:    0.0000000

LOEWDIN ATOMIC CHARGES
----------------------
   0 C :   -0.256515
   1 H :    0.128258
   2 H :    0.128257

  Mayer bond orders larger than 0.100000
B(  0-C ,  1-H ) :   0.8915 B(  0-C ,  2-H ) :   0.8915

FINAL SINGLE POINT ENERGY       -38.630736661372

DIPOLE MOMENT
-------------
                                X             Y             Z
Electronic contribution:      0.10877       0.15382      -0.00000
Nuclear contribution   :     -0.31496      -0.44541      -0.00000
                        -----------------------------------------
Total Dipole Moment    :     -0.20619      -0.29159      -0.00000
                        -----------------------------------------
Magnitude (a.u.)       :      0.35712
Magnitude (Debye)      :      0.90774

Rotational constants in cm-1:    84.709355     7.876034     7.206037
Rotational constants in MHz : 2539522.584273 236117.550997 216031.554552

                             ****ORCA TERMINATED NORMALLY****
TOTAL RUN TIME: 0 days 0 hours 0 minutes 4 seconds 329 msec
