                         Program Version 5.0.1 -  RELEASE  -
|  1> %pal nprocs 28 end
|  2> %maxcore 1000
|  3> ! hf 3-21g engrad
|  4> !moread
|  5>  %moinp "JOBS/a.gbw"
|  6>
|  7>
|  8>  *xyz 0 1
|  9> c  1.2707997628180592  0.17595521311971876  -4.318544438893881e-08
| 10> h  1.9636787033863703  -0.6306748377977515  2.1591640044140922e-08
| 11> h  0.2793505543959491  0.5603554888016101  2.1594525607588416e-08
| 12> *
| 13> % casscf nel 2 norb 2 nroots 2 weights[0] = 1,0
| 14> maxiter 200
| 15> orbstep superci_pt
| 16> switchstep diis
| 17> shiftup 2.0
| 18> shiftdn 2.0
| 19> minshift 0.6
| 20> end
| 21>
| 22>
| 23>                          ****END OF INPUT****

CARTESIAN COORDINATES (ANGSTROEM)
---------------------------------
  C      1.270800    0.175955   -0.000000
  H      1.963679   -0.630675    0.000000
  H      0.279351    0.560355    0.000000

 Total Charge           Charge          ....    0
 Multiplicity           Mult            ....    1
 Number of Electrons    NEL             ....    8
 Basis Dimension        Dim             ....   13

ORBITAL ENERGIES
----------------

  NO   OCC          E(Eh)            E(eV)
   0   2.0000     -11.183220      -304.3109
   1   2.0000      -0.855332       -23.2748
   2   2.0000      -0.626238       -17.0408
   3   1.4242      -0.199262        -5.4222
   4   0.5758      -0.013461        -0.3663
   5   0.0000       0.269899         7.3443
   6   0.0000       0.384637        10.4665
   7   0.0000       0.948894        25.8207
   8   0.0000       1.001609        27.2552
   9   0.0000       1.050740        28.5921

MULLIKEN ATOMIC CHARGES
-----------------------
   0 C :   -0.495053
   1 H :    0.247527
   2 H :    0.247527
Sum of atomic charges:   -0.0000000

LOEWDIN ATOMIC CHARGES
----------------------
   0 C :   -0.253868
   1 H :    0.126934
   2 H :    0.126934

  Mayer bond orders larger than 0.100000
B(  0-C ,  1-H ) :   0.9017 B(  0-C ,  2-H ) :   0.9017

FINAL SINGLE POINT ENERGY       -38.635160315512

DIPOLE MOMENT
-------------
                                X             Y             Z
Electronic contribution:     -0.00088      -0.00125       0.00000
Nuclear contribution   :     -0.23985      -0.33919       0.00000
                        -----------------------------------------
Total Dipole Moment    :     -0.24074      -0.34044       0.00000
                        -----------------------------------------
Magnitude (a.u.)       :      0.41696
Magnitude (Debye)      :      1.05983

Rotational constants in cm-1:   146.067823     7.859850     7.458511
Rotational constants in MHz : 4379003.172359 235632.389582 223600.535219

                             ****ORCA TERMINATED NORMALLY****
TOTAL RUN TIME: 0 days 0 hours 0 minutes 4 seconds 237 msec
