                         Program Version 5.0.1 -  RELEASE  -
|  1> %pal nprocs 28 end
|  2> %maxcore 1000
|  3> ! hf 3-21g engrad
|  4> !moread
|  5>  %moinp "JOBS/a.gbw"
|  6>
|  7>
|  8>  *xyz 0 1
|  9> c  1.2645369938527073  0.16709863452432397  -5.47857792672704e-08
| 10> h  1.9686886626398885  -0.6275749943661302  2.7391608012568932e-08
| 11> h  0.2806033641068738  0.566112223965118  2.7395125776043763e-08
| 12> *
| 13> % casscf nel 2 norb 2 nroots 2 weights[0] = 1,0
| 14> maxiter 200
| 15> orbstep superci_pt
| 16> switchstep diis
| 17> shiftup 2.0
| 18> shiftdn 2.0
| 19> minshift 0.6
| 20> end
| 21>
| 22>
| 23>                          ****END OF INPUT****

CARTESIAN COORDINATES (ANGSTROEM)
---------------------------------
  C      1.264537    0.167099   -0.000000
  H      1.968689   -0.627575    0.000000
  H      0.280603    0.566112    0.000000

 Total Charge           Charge          ....    0
 Multiplicity           Mult            ....    1
 Number of Electrons    NEL             ....    8
 Basis Dimension        Dim             ....   13

ORBITAL ENERGIES
----------------

  NO   OCC          E(Eh)            E(eV)
   0   2.0000     -11.181988      -304.2774
   1   2.0000      -0.854434       -23.2503
   2   2.0000      -0.627761       -17.0823
   3   1.3837      -0.189373        -5.1531
   4   0.6163      -0.021376        -0.5817
   5   0.0000       0.269217         7.3258
   6   0.0000       0.385559        10.4916
   7   0.0000       0.949868        25.8472
   8   0.0000       1.002030        27.2666
   9   0.0000       1.046565        28.4785

MULLIKEN ATOMIC CHARGES
-----------------------
   0 C :   -0.505060
   1 H :    0.252530
   2 H :    0.252530
Sum of atomic charges:   -0.0000000

LOEWDIN ATOMIC CHARGES
----------------------
   0 C :   -0.258902
   1 H :    0.129451
   2 H :    0.129451

  Mayer bond orders larger than 0.100000
B(  0-C ,  1-H ) :   0.9013 B(  0-C ,  2-H ) :   0.9013

FINAL SINGLE POINT ENERGY       -38.634229203376

DIPOLE MOMENT
-------------
                                X             Y             Z
Electronic contribution:      0.00092       0.00130      -0.00000
Nuclear contribution   :     -0.22476      -0.31785       0.00000
                        -----------------------------------------
Total Dipole Moment    :     -0.22384      -0.31655       0.00000
                        -----------------------------------------
Magnitude (a.u.)       :      0.38769
Magnitude (Debye)      :      0.98544

Rotational constants in cm-1:   166.344333     7.824902     7.473352
Rotational constants in MHz : 4986877.651097 234584.653487 224045.468017

                             ****ORCA TERMINATED NORMALLY****
TOTAL RUN TIME: 0 days 0 hours 0 minutes 4 seconds 291 msec
