                         Program Version 5.0.1 -  RELEASE  -
|  1> %pal nprocs 28 end
|  2> %maxcore 1000
|  3> ! hf 3-21g engrad
|  4> !moread
|  5>  %moinp "JOBS/a.gbw"
|  6>
|  7>
|  8>  *xyz 0 1
|  9> c  1.2690859328492499  0.17353132761329695  -1.4160722903052925e-07
| 10> h  1.9643630939888637  -0.629340914884286  7.080241177281246e-08
| 11> h  0.28037999376194517  0.5614454513943968  7.080510091061893e-08
| 12> *
| 13> % casscf nel 2 norb 2 nroots 2 weights[0] = 1,0
| 14> maxiter 200
| 15> orbstep superci_pt
| 16> switchstep diis
| 17> shiftup 2.0
| 18> shiftdn 2.0
| 19> minshift 0.6
| 20> end
| 21>
| 22>
| 23>                          ****END OF INPUT****

CARTESIAN COORDINATES (ANGSTROEM)
---------------------------------
  C      1.269086    0.173531   -0.000000
  H      1.964363   -0.629341    0.000000
  H      0.280380    0.561445    0.000000

 Total Charge           Charge          ....    0
 Multiplicity           Mult            ....    1
 Number of Electrons    NEL             ....    8
 Basis Dimension        Dim             ....   13

ORBITAL ENERGIES
----------------

  NO   OCC          E(Eh)            E(eV)
   0   2.0000     -11.182719      -304.2973
   1   2.0000      -0.855368       -23.2757
   2   2.0000      -0.626987       -17.0612
   3   1.4135      -0.196661        -5.3514
   4   0.5865      -0.015550        -0.4231
   5   0.0000       0.270120         7.3503
   6   0.0000       0.385036        10.4774
   7   0.0000       0.948860        25.8198
   8   0.0000       1.001752        27.2590
   9   0.0000       1.049616        28.5615

MULLIKEN ATOMIC CHARGES
-----------------------
   0 C :   -0.497744
   1 H :    0.248872
   2 H :    0.248872
Sum of atomic charges:   -0.0000000

LOEWDIN ATOMIC CHARGES
----------------------
   0 C :   -0.254966
   1 H :    0.127483
   2 H :    0.127483

  Mayer bond orders larger than 0.100000
B(  0-C ,  1-H ) :   0.9017 B(  0-C ,  2-H ) :   0.9017

FINAL SINGLE POINT ENERGY       -38.634905545460

DIPOLE MOMENT
-------------
                                X             Y             Z
Electronic contribution:     -0.00048      -0.00068      -0.00000
Nuclear contribution   :     -0.23572      -0.33335       0.00000
                        -----------------------------------------
Total Dipole Moment    :     -0.23620      -0.33403       0.00000
                        -----------------------------------------
Magnitude (a.u.)       :      0.40911
Magnitude (Debye)      :      1.03988

Rotational constants in cm-1:   151.231843     7.863072     7.474449
Rotational constants in MHz : 4533816.601567 235728.957548 224078.342046

                             ****ORCA TERMINATED NORMALLY****
TOTAL RUN TIME: 0 days 0 hours 0 minutes 4 seconds 256 msec
