                         Program Version 5.0.1 -  RELEASE  -
|  1> %pal nprocs 28 end
|  2> %maxcore 1000
|  3> ! hf 3-21g engrad
|  4> !moread
|  5>  %moinp "JOBS/a.gbw"
|  6>
|  7>
|  8>  *xyz 0 1
|  9> c  1.2483128532134928  0.14415391002844  8.996905263698883e-07
| 10> h  1.9835960651802065  -0.6209075658801803  -4.498506255487902e-07
| 11> h  0.28192010220353175  0.5823895199886454  -4.4981707136276595e-07
| 12> *
| 13> % casscf nel 2 norb 2 nroots 2 weights[0] = 1,0
| 14> maxiter 200
| 15> orbstep superci_pt
| 16> switchstep diis
| 17> shiftup 2.0
| 18> shiftdn 2.0
| 19> minshift 0.6
| 20> end
| 21>
| 22>
| 23>                          ****END OF INPUT****

CARTESIAN COORDINATES (ANGSTROEM)
---------------------------------
  C      1.248313    0.144154    0.000001
  H      1.983596   -0.620908   -0.000000
  H      0.281920    0.582390   -0.000000

 Total Charge           Charge          ....    0
 Multiplicity           Mult            ....    1
 Number of Electrons    NEL             ....    8
 Basis Dimension        Dim             ....   13

ORBITAL ENERGIES
----------------

  NO   OCC          E(Eh)            E(eV)
   0   2.0000     -11.179758      -304.2167
   1   2.0000      -0.851361       -23.1667
   2   2.0000      -0.630076       -17.1452
   3   1.2783      -0.163864        -4.4590
   4   0.7217      -0.042028        -1.1437
   5   0.0000       0.265952         7.2369
   6   0.0000       0.387164        10.5353
   7   0.0000       0.954283        25.9674
   8   0.0000       1.002788        27.2872
   9   0.0000       1.036070        28.1929

MULLIKEN ATOMIC CHARGES
-----------------------
   0 C :   -0.529424
   1 H :    0.264712
   2 H :    0.264712
Sum of atomic charges:   -0.0000000

LOEWDIN ATOMIC CHARGES
----------------------
   0 C :   -0.271572
   1 H :    0.135786
   2 H :    0.135786

  Mayer bond orders larger than 0.100000
B(  0-C ,  1-H ) :   0.9003 B(  0-C ,  2-H ) :   0.9003

FINAL SINGLE POINT ENERGY       -38.632228873881

DIPOLE MOMENT
-------------
                                X             Y             Z
Electronic contribution:      0.00626       0.00885       0.00000
Nuclear contribution   :     -0.18566      -0.26255      -0.00000
                        -----------------------------------------
Total Dipole Moment    :     -0.17940      -0.25370      -0.00000
                        -----------------------------------------
Magnitude (a.u.)       :      0.31072
Magnitude (Debye)      :      0.78979

Rotational constants in cm-1:   243.790584     7.700413     7.464634
Rotational constants in MHz : 7308657.853143 230852.587907 223784.102789

                             ****ORCA TERMINATED NORMALLY****
TOTAL RUN TIME: 0 days 0 hours 0 minutes 4 seconds 340 msec
