                         Program Version 5.0.1 -  RELEASE  -
|  1> %pal nprocs 28 end
|  2> %maxcore 1000
|  3> ! hf 3-21g
|  4>
|  5>  *xyz 0 1
|  6> c  1.40905202  0.37147736  0.0
|  7> h  1.76570645  -0.63733264  0.0
|  8> h  0.33905202  0.37149055  0.0
|  9> *
| 10> % casscf nel 2 norb 2 nroots 2 weights[0] = 1,0
| 11> maxiter 200
| 12> orbstep superci_pt
| 13> switchstep diis
| 14> shiftup 2.0
| 15> shiftdn 2.0
| 16> minshift 0.6
| 17> end
| 18>
| 19>
| 20>                          ****END OF INPUT****

CARTESIAN COORDINATES (ANGSTROEM)
---------------------------------
  C      1.409052    0.371477    0.000000
  H      1.765706   -0.637333    0.000000
  H      0.339052    0.371491    0.000000

 Total Charge           Charge          ....    0
 Multiplicity           Mult            ....    1
 Number of Electrons    NEL             ....    8
 Basis Dimension        Dim             ....   13

ORBITAL ENERGIES
----------------

  NO   OCC          E(Eh)            E(eV)
   0   2.0000     -11.209085      -305.0147
   1   2.0000      -0.817871       -22.2554
   2   2.0000      -0.580771       -15.8036
   3   1.9230      -0.433062       -11.7842
   4   0.0770       0.096673         2.6306
   5   0.0000       0.298871         8.1327
   6   0.0000       0.356754         9.7078
   7   0.0000       0.914201        24.8767
   8   0.0000       0.970499        26.4086
   9   0.0000       0.978820        26.6350

MULLIKEN ATOMIC CHARGES
-----------------------
   0 C :   -0.324241
   1 H :    0.162121
   2 H :    0.162121
Sum of atomic charges:    0.0000000

LOEWDIN ATOMIC CHARGES
----------------------
   0 C :   -0.121404
   1 H :    0.060702
   2 H :    0.060702

  Mayer bond orders larger than 0.100000
B(  0-C ,  1-H ) :   0.9127 B(  0-C ,  2-H ) :   0.9127

FINAL SINGLE POINT ENERGY       -38.665266695218

DIPOLE MOMENT
-------------
                                X             Y             Z
Electronic contribution:      0.11754       0.16623      -0.00000
Nuclear contribution   :     -0.57306      -0.81041       0.00000
                        -----------------------------------------
Total Dipole Moment    :     -0.45551      -0.64418      -0.00000
                        -----------------------------------------
Magnitude (a.u.)       :      0.78896
Magnitude (Debye)      :      2.00538

Rotational constants in cm-1:    25.588559    10.955445     7.671137
Rotational constants in MHz : 767125.690294 328435.973689 229974.889882

                             ****ORCA TERMINATED NORMALLY****
TOTAL RUN TIME: 0 days 0 hours 0 minutes 4 seconds 143 msec
