                         Program Version 5.0.1 -  RELEASE  -
|  1> %pal nprocs 28 end
|  2> %maxcore 1000
|  3> ! hf 3-21g
|  4>
|  5>  *xyz 0 1
|  6> c  1.40905202  0.37147736  0.0
|  7> h  1.76570645  -0.63733264  0.0
|  8> h  0.33905202  0.37149055  0.0
|  9> *
| 10> % casscf nel 2 norb 2 nroots 2 weights[0] = 0,1
| 11> maxiter 200
| 12> orbstep superci_pt
| 13> switchstep diis
| 14> shiftup 2.0
| 15> shiftdn 2.0
| 16> minshift 0.6
| 17> end
| 18>
| 19>
| 20>                          ****END OF INPUT****

CARTESIAN COORDINATES (ANGSTROEM)
---------------------------------
  C      1.409052    0.371477    0.000000
  H      1.765706   -0.637333    0.000000
  H      0.339052    0.371491    0.000000

 Total Charge           Charge          ....    0
 Multiplicity           Mult            ....    1
 Number of Electrons    NEL             ....    8
 Basis Dimension        Dim             ....   13

ORBITAL ENERGIES
----------------

  NO   OCC          E(Eh)            E(eV)
   0   2.0000     -11.197066      -304.6877
   1   2.0000      -0.877049       -23.8657
   2   2.0000      -0.571803       -15.5595
   3   1.0000      -0.140914        -3.8345
   4   1.0000      -0.140914        -3.8345
   5   0.0000       0.307462         8.3665
   6   0.0000       0.359055         9.7704
   7   0.0000       0.915163        24.9029
   8   0.0000       0.979881        26.6639
   9   0.0000       0.993676        27.0393

MULLIKEN ATOMIC CHARGES
-----------------------
   0 C :   -0.449012
   1 H :    0.224506
   2 H :    0.224506
Sum of atomic charges:    0.0000000

LOEWDIN ATOMIC CHARGES
----------------------
   0 C :   -0.204159
   1 H :    0.102080
   2 H :    0.102079

  Mayer bond orders larger than 0.100000
B(  0-C ,  1-H ) :   0.8756 B(  0-C ,  2-H ) :   0.8756

FINAL SINGLE POINT ENERGY       -38.611002138563

DIPOLE MOMENT
-------------
                                X             Y             Z
Electronic contribution:      0.30019       0.42452       0.00000
Nuclear contribution   :     -0.57306      -0.81041       0.00000
                        -----------------------------------------
Total Dipole Moment    :     -0.27287      -0.38589       0.00000
                        -----------------------------------------
Magnitude (a.u.)       :      0.47262
Magnitude (Debye)      :      1.20130

Rotational constants in cm-1:    25.588559    10.955445     7.671137
Rotational constants in MHz : 767125.690294 328435.973689 229974.889882

                             ****ORCA TERMINATED NORMALLY****
TOTAL RUN TIME: 0 days 0 hours 0 minutes 4 seconds 38 msec
