 Gaussian 16, Revision C.01,
 Gaussian 16:  ES64L-G16RevC.01  3-Jul-2019

 ----------------------------------------------------------------------
 # pbe1pbe em=gd3bj genecp g09default scf=(xqc,maxcycle=64) force guess
 =read nosymm
 ----------------------------------------------------------------------

 ----------
 Title Card
 ----------
 Symbolic Z-matrix:
 Charge =  0 Multiplicity = 1

                          Input orientation:
 ---------------------------------------------------------------------
 Center     Atomic      Atomic             Coordinates (Angstroms)
 Number     Number       Type             X           Y           Z
 ---------------------------------------------------------------------
      1          6           0        0.000006    0.799554    0.000160
      2          6           0       -1.290249    1.351242    0.000046
      3          6           0       -1.248189    2.746838   -0.000014
      4          6           0       -0.000001    3.388176   -0.000002
      5          6           0        1.248199    2.746843    0.000020
      6          6           0        1.290243    1.351239    0.000072
      7          1           0       -2.152886    3.341427   -0.000051
      8          1           0        0.000003    4.473993   -0.000027
      9          1           0        2.152886    3.341427    0.000019
     10          6           0        3.718179    0.585300   -0.000041
     11          6           0        1.942932   -0.914449    0.000136
     12          6           0        4.217679   -0.739976   -0.000092
     13          6           0        4.581537    1.664664   -0.000084
     14          6           0        5.586254   -0.992905   -0.000200
     15          6           0        5.965930    1.407076   -0.000188
     16          1           0        4.221881    2.686463   -0.000015
     17          6           0        6.453243    0.109443   -0.000252
     18          1           0        5.972984   -2.007200   -0.000221
     19          1           0        6.656263    2.244672   -0.000201
     20          1           0        7.526379   -0.060961   -0.000326
     21          6           0       -3.718194    0.585361   -0.000051
     22          6           0       -1.942928   -0.914451    0.000110
     23          6           0       -4.217728   -0.740018   -0.000079
     24          6           0       -4.581535    1.664596   -0.000076
     25          6           0       -5.586216   -0.992872   -0.000114
     26          6           0       -5.965905    1.407123   -0.000118
     27          1           0       -4.221874    2.686476   -0.000033
     28          6           0       -6.453259    0.109376   -0.000137
     29          1           0       -5.972983   -2.007227   -0.000091
     30          1           0       -6.656255    2.244652   -0.000114
     31          1           0       -7.526366   -0.060968   -0.000151
     32          7           0       -2.325416    0.469722    0.000052
     33          7           0       -3.151228   -1.604699   -0.000027
     34          7           0        2.325436    0.469734    0.000094
     35          7           0        3.151254   -1.604692    0.000002
     36          6           0        3.239876   -3.030870    0.000016
     37          1           0        3.758155   -3.405229   -0.892447
     38          1           0        3.757576   -3.405298    0.892800
     39          1           0        2.226799   -3.441867   -0.000349
     40          6           0       -3.239873   -3.030872    0.000052
     41          1           0       -3.757491   -3.405268    0.892893
     42          1           0       -3.758222   -3.405266   -0.892353
     43          1           0       -2.226789   -3.441872   -0.000389
     44         27           0        0.000000   -1.254359    0.000108
 ---------------------------------------------------------------------

 SCF Done:  E(UPBE1PBE) =  -1212.11131105     A.U. after   16 cycles

 Alpha  occ. eigenvalues --  -14.45868 -14.45868 -14.45369 -14.45368 -10.28554
 Alpha  occ. eigenvalues --  -10.28554 -10.27839 -10.27838 -10.27587 -10.27586
 Alpha  occ. eigenvalues --  -10.27280 -10.27280 -10.25398 -10.25397 -10.24227
 Alpha  occ. eigenvalues --  -10.24227 -10.24023 -10.24023 -10.23513 -10.23513
 Alpha  occ. eigenvalues --  -10.23454 -10.23454 -10.21477 -10.21474 -10.21058
 Alpha  occ. eigenvalues --  -10.19261  -3.83005  -2.34792  -2.34676  -2.30898
 Alpha  occ. eigenvalues --   -1.05717  -1.05657  -0.96932  -0.96609  -0.88169
 Alpha  occ. eigenvalues --   -0.87934  -0.84949  -0.80280  -0.78759  -0.77880
 Alpha  occ. eigenvalues --   -0.77781  -0.75572  -0.74960  -0.72967  -0.71743
 Alpha  occ. eigenvalues --   -0.66495  -0.65181  -0.64559  -0.64091  -0.62537
 Alpha  occ. eigenvalues --   -0.61345  -0.58902  -0.57201  -0.56614  -0.54103
 Alpha  occ. eigenvalues --   -0.53176  -0.52045  -0.49595  -0.49540  -0.48995
 Alpha  occ. eigenvalues --   -0.48289  -0.47884  -0.47547  -0.46596  -0.46115
 Alpha  occ. eigenvalues --   -0.45803  -0.45378  -0.45022  -0.44477  -0.43957
 Alpha  occ. eigenvalues --   -0.42399  -0.41879  -0.41063  -0.38516  -0.38410
 Alpha  occ. eigenvalues --   -0.38360  -0.37487  -0.36867  -0.36738  -0.36645
 Alpha  occ. eigenvalues --   -0.34860  -0.34702  -0.34437  -0.33840  -0.31594
 Alpha  occ. eigenvalues --   -0.29008  -0.26714  -0.25928  -0.24715  -0.24421
 Alpha  occ. eigenvalues --   -0.21622  -0.21324  -0.20502  -0.20120  -0.16334
 Alpha  occ. eigenvalues --   -0.15204  -0.14754
 Alpha virt. eigenvalues --   -0.04511  -0.02439  -0.00803  -0.00136   0.00815
 Alpha virt. eigenvalues --    0.01346   0.01948   0.03186   0.05373   0.05978
 Alpha virt. eigenvalues --    0.06182   0.07279   0.08745   0.09275   0.10037

  Beta  occ. eigenvalues --  -14.45868 -14.45868 -14.45369 -14.45368 -10.28554
  Beta  occ. eigenvalues --  -10.28554 -10.27839 -10.27838 -10.27587 -10.27586
  Beta  occ. eigenvalues --  -10.27280 -10.27280 -10.25398 -10.25397 -10.24227
  Beta  occ. eigenvalues --  -10.24227 -10.24023 -10.24023 -10.23513 -10.23513
  Beta  occ. eigenvalues --  -10.23454 -10.23454 -10.21477 -10.21474 -10.21058
  Beta  occ. eigenvalues --  -10.19261  -3.83005  -2.34792  -2.34676  -2.30898
  Beta  occ. eigenvalues --   -1.05717  -1.05657  -0.96932  -0.96609  -0.88169
  Beta  occ. eigenvalues --   -0.87934  -0.84949  -0.80280  -0.78759  -0.77880
  Beta  occ. eigenvalues --   -0.77781  -0.75572  -0.74960  -0.72967  -0.71743
  Beta  occ. eigenvalues --   -0.66495  -0.65181  -0.64559  -0.64091  -0.62537
  Beta  occ. eigenvalues --   -0.61345  -0.58902  -0.57201  -0.56614  -0.54103
  Beta  occ. eigenvalues --   -0.53176  -0.52045  -0.49595  -0.49540  -0.48995
  Beta  occ. eigenvalues --   -0.48289  -0.47884  -0.47547  -0.46596  -0.46115
  Beta  occ. eigenvalues --   -0.45803  -0.45378  -0.45022  -0.44477  -0.43957
  Beta  occ. eigenvalues --   -0.42399  -0.41879  -0.41063  -0.38516  -0.38410
  Beta  occ. eigenvalues --   -0.38360  -0.37487  -0.36867  -0.36738  -0.36645
  Beta  occ. eigenvalues --   -0.34860  -0.34702  -0.34437  -0.33840  -0.31594
  Beta  occ. eigenvalues --   -0.29008  -0.26714  -0.25928  -0.24715  -0.24421
  Beta  occ. eigenvalues --   -0.21622  -0.21324  -0.20502  -0.20120  -0.16334
  Beta  occ. eigenvalues --   -0.15204  -0.14754
  Beta virt. eigenvalues --   -0.04511  -0.02439  -0.00803  -0.00136   0.00815
  Beta virt. eigenvalues --    0.01346   0.01948   0.03186   0.05373   0.05978
  Beta virt. eigenvalues --    0.06182   0.07279   0.08745   0.09275   0.10037

 Mulliken charges and spin densities:
               1          2
     1  C   -0.171553   0.000000
     2  C    0.347728  -0.000000
     3  C   -0.214419   0.000000
     4  C   -0.181325  -0.000000
     5  C   -0.214422   0.000000
     6  C    0.347720  -0.000000
     7  H    0.156362   0.000000
     8  H    0.155434   0.000000
     9  H    0.156363   0.000000
    10  C    0.317481  -0.000000
    11  C    0.411738   0.000000
    12  C    0.292250  -0.000000
    13  C   -0.193128   0.000000
    14  C   -0.210554   0.000000
    15  C   -0.186268   0.000000
    16  H    0.196587  -0.000000
    17  C   -0.182993  -0.000000
    18  H    0.176994  -0.000000
    19  H    0.174350  -0.000000
    20  H    0.171739   0.000000
    21  C    0.317520  -0.000000
    22  C    0.411758   0.000000
    23  C    0.292271  -0.000000
    24  C   -0.193144   0.000000
    25  C   -0.210563   0.000000
    26  C   -0.186280   0.000000
    27  H    0.196586  -0.000000
    28  C   -0.183009  -0.000000
    29  H    0.176989  -0.000000
    30  H    0.174356  -0.000000
    31  H    0.171745   0.000000
    32  N   -0.727010   0.000000
    33  N   -0.585874   0.000000
    34  N   -0.726996   0.000000
    35  N   -0.585867   0.000000
    36  C   -0.401191   0.000000
    37  H    0.201951   0.000000
    38  H    0.201962  -0.000000
    39  H    0.226129   0.000000
    40  C   -0.401192   0.000000
    41  H    0.201964   0.000000
    42  H    0.201951  -0.000000
    43  H    0.226125   0.000000
    44  Co  -0.150264  -0.000000
 Sum of Mulliken charges =  -0.00000  -0.00000

 Dipole moment (field-independent basis, Debye):
    X=             -0.0004    Y=             -3.6284    Z=             -0.0003  Tot=              3.6284
 Quadrupole moment (field-independent basis, Debye-Ang):
   XX=           -124.8284   YY=           -134.7481   ZZ=           -172.3996
   XY=             -0.0008   XZ=             -0.0006   YZ=              0.0006

 Normal termination of Gaussian 16 at Wed Jul 17 21:34:05 2024.
