 Gaussian 16, Revision C.01,
 Gaussian 16:  ES64L-G16RevC.01  3-Jul-2019

 ----------------------------------------------------------------------
 # pbe1pbe em=gd3bj genecp g09default scf=(xqc,maxcycle=64) force guess
 =read nosymm
 ----------------------------------------------------------------------

 ----------
 Title Card
 ----------
 Symbolic Z-matrix:
 Charge =  0 Multiplicity = 3

                          Input orientation:
 ---------------------------------------------------------------------
 Center     Atomic      Atomic             Coordinates (Angstroms)
 Number     Number       Type             X           Y           Z
 ---------------------------------------------------------------------
      1          6           0        0.000006    0.799554    0.000160
      2          6           0       -1.290249    1.351242    0.000046
      3          6           0       -1.248189    2.746838   -0.000014
      4          6           0       -0.000001    3.388176   -0.000002
      5          6           0        1.248199    2.746843    0.000020
      6          6           0        1.290243    1.351239    0.000072
      7          1           0       -2.152886    3.341427   -0.000051
      8          1           0        0.000003    4.473993   -0.000027
      9          1           0        2.152886    3.341427    0.000019
     10          6           0        3.718179    0.585300   -0.000041
     11          6           0        1.942932   -0.914449    0.000136
     12          6           0        4.217679   -0.739976   -0.000092
     13          6           0        4.581537    1.664664   -0.000084
     14          6           0        5.586254   -0.992905   -0.000200
     15          6           0        5.965930    1.407076   -0.000188
     16          1           0        4.221881    2.686463   -0.000015
     17          6           0        6.453243    0.109443   -0.000252
     18          1           0        5.972984   -2.007200   -0.000221
     19          1           0        6.656263    2.244672   -0.000201
     20          1           0        7.526379   -0.060961   -0.000326
     21          6           0       -3.718194    0.585361   -0.000051
     22          6           0       -1.942928   -0.914451    0.000110
     23          6           0       -4.217728   -0.740018   -0.000079
     24          6           0       -4.581535    1.664596   -0.000076
     25          6           0       -5.586216   -0.992872   -0.000114
     26          6           0       -5.965905    1.407123   -0.000118
     27          1           0       -4.221874    2.686476   -0.000033
     28          6           0       -6.453259    0.109376   -0.000137
     29          1           0       -5.972983   -2.007227   -0.000091
     30          1           0       -6.656255    2.244652   -0.000114
     31          1           0       -7.526366   -0.060968   -0.000151
     32          7           0       -2.325416    0.469722    0.000052
     33          7           0       -3.151228   -1.604699   -0.000027
     34          7           0        2.325436    0.469734    0.000094
     35          7           0        3.151254   -1.604692    0.000002
     36          6           0        3.239876   -3.030870    0.000016
     37          1           0        3.758155   -3.405229   -0.892447
     38          1           0        3.757576   -3.405298    0.892800
     39          1           0        2.226799   -3.441867   -0.000349
     40          6           0       -3.239873   -3.030872    0.000052
     41          1           0       -3.757491   -3.405268    0.892893
     42          1           0       -3.758222   -3.405266   -0.892353
     43          1           0       -2.226789   -3.441872   -0.000389
     44         27           0        0.000000   -1.254359    0.000108
 ---------------------------------------------------------------------

 SCF Done:  E(UPBE1PBE) =  -1212.11131436     A.U. after   22 cycles

 Alpha  occ. eigenvalues --  -14.45310 -14.45310 -14.45175 -14.45174 -10.28171
 Alpha  occ. eigenvalues --  -10.28171 -10.27598 -10.27597 -10.27254 -10.27253
 Alpha  occ. eigenvalues --  -10.27242 -10.27242 -10.26758 -10.26757 -10.23690
 Alpha  occ. eigenvalues --  -10.23690 -10.23616 -10.23616 -10.23082 -10.23081
 Alpha  occ. eigenvalues --  -10.22979 -10.22978 -10.22400 -10.22388 -10.22289
 Alpha  occ. eigenvalues --  -10.21081  -3.93393  -2.45290  -2.43684  -2.43202
 Alpha  occ. eigenvalues --   -1.05540  -1.05464  -0.96981  -0.96596  -0.88000
 Alpha  occ. eigenvalues --   -0.87608  -0.85596  -0.80403  -0.78810  -0.77582
 Alpha  occ. eigenvalues --   -0.77571  -0.75530  -0.74803  -0.73217  -0.72290
 Alpha  occ. eigenvalues --   -0.66695  -0.65290  -0.64358  -0.64085  -0.62599
 Alpha  occ. eigenvalues --   -0.61269  -0.58910  -0.57579  -0.56562  -0.53935
 Alpha  occ. eigenvalues --   -0.53029  -0.52310  -0.49614  -0.49533  -0.49058
 Alpha  occ. eigenvalues --   -0.48589  -0.48072  -0.47265  -0.46757  -0.45847
 Alpha  occ. eigenvalues --   -0.45680  -0.45322  -0.44811  -0.44749  -0.44043
 Alpha  occ. eigenvalues --   -0.42743  -0.41858  -0.41255  -0.38903  -0.38515
 Alpha  occ. eigenvalues --   -0.38414  -0.37401  -0.37308  -0.37150  -0.36924
 Alpha  occ. eigenvalues --   -0.36325  -0.35093  -0.34550  -0.33932  -0.31949
 Alpha  occ. eigenvalues --   -0.31278  -0.30286  -0.26888  -0.26556  -0.26547
 Alpha  occ. eigenvalues --   -0.26202  -0.26008  -0.24511  -0.24189  -0.22915
 Alpha  occ. eigenvalues --   -0.20928  -0.20665  -0.10097
 Alpha virt. eigenvalues --   -0.06273  -0.03059  -0.00273  -0.00042   0.00315
 Alpha virt. eigenvalues --    0.02202   0.02731   0.03450   0.03843   0.05645
 Alpha virt. eigenvalues --    0.06122   0.07556   0.07608   0.09613   0.10166

  Beta  occ. eigenvalues --  -14.45185 -14.45184 -14.45151 -14.45150 -10.27941
  Beta  occ. eigenvalues --  -10.27941 -10.27599 -10.27599 -10.27291 -10.27290
  Beta  occ. eigenvalues --  -10.27251 -10.27251 -10.26643 -10.26642 -10.23630
  Beta  occ. eigenvalues --  -10.23630 -10.23595 -10.23595 -10.23091 -10.23090
  Beta  occ. eigenvalues --  -10.22944 -10.22944 -10.22490 -10.22486 -10.22185
  Beta  occ. eigenvalues --  -10.21675  -3.85580  -2.36891  -2.36218  -2.33888
  Beta  occ. eigenvalues --   -1.05339  -1.05258  -0.96819  -0.96397  -0.87999
  Beta  occ. eigenvalues --   -0.87538  -0.85708  -0.80345  -0.78790  -0.77521
  Beta  occ. eigenvalues --   -0.77515  -0.75400  -0.74601  -0.73225  -0.72544
  Beta  occ. eigenvalues --   -0.66733  -0.65206  -0.64109  -0.64072  -0.62596
  Beta  occ. eigenvalues --   -0.61171  -0.58905  -0.57682  -0.56559  -0.53918
  Beta  occ. eigenvalues --   -0.53014  -0.52292  -0.49157  -0.49091  -0.49038
  Beta  occ. eigenvalues --   -0.48614  -0.48220  -0.47243  -0.46754  -0.45816
  Beta  occ. eigenvalues --   -0.45682  -0.45291  -0.44818  -0.44400  -0.43733
  Beta  occ. eigenvalues --   -0.42787  -0.41835  -0.41268  -0.38636  -0.38553
  Beta  occ. eigenvalues --   -0.38532  -0.37302  -0.37256  -0.36523  -0.36439
  Beta  occ. eigenvalues --   -0.35611  -0.35171  -0.34012  -0.33292  -0.31617
  Beta  occ. eigenvalues --   -0.29713  -0.27421  -0.26544  -0.25905  -0.24757
  Beta  occ. eigenvalues --   -0.23769  -0.23265  -0.21944  -0.20724  -0.19835
  Beta  occ. eigenvalues --   -0.19533
  Beta virt. eigenvalues --   -0.04427  -0.03866  -0.00783  -0.00350  -0.00120
  Beta virt. eigenvalues --    0.01376   0.01723   0.02391   0.03484   0.05414
  Beta virt. eigenvalues --    0.05711   0.06035   0.07891   0.08625   0.09286

 Mulliken charges and spin densities:
               1          2
     1  C   -0.238309  -0.349539
     2  C    0.393707   0.081035
     3  C   -0.215580  -0.064548
     4  C   -0.178489   0.088452
     5  C   -0.215583  -0.064549
     6  C    0.393701   0.081034
     7  H    0.168150  -0.004000
     8  H    0.163305  -0.004422
     9  H    0.168153  -0.004000
    10  C    0.317500  -0.000443
    11  C    0.371862   0.196447
    12  C    0.295225  -0.022389
    13  C   -0.197798   0.013140
    14  C   -0.216888   0.044041
    15  C   -0.188572   0.024919
    16  H    0.190339  -0.000917
    17  C   -0.182185  -0.010109
    18  H    0.173456  -0.002283
    19  H    0.170876  -0.001482
    20  H    0.169137   0.000176
    21  C    0.317540  -0.000434
    22  C    0.371885   0.196432
    23  C    0.295247  -0.022387
    24  C   -0.197810   0.013124
    25  C   -0.216895   0.044021
    26  C   -0.188585   0.024926
    27  H    0.190340  -0.000916
    28  C   -0.182201  -0.010115
    29  H    0.173452  -0.002282
    30  H    0.170884  -0.001482
    31  H    0.169146   0.000177
    32  N   -0.733378  -0.006361
    33  N   -0.589393   0.035958
    34  N   -0.733364  -0.006362
    35  N   -0.589385   0.035956
    36  C   -0.399683  -0.004403
    37  H    0.201644   0.002008
    38  H    0.201652   0.002013
    39  H    0.217497  -0.000815
    40  C   -0.399685  -0.004403
    41  H    0.201654   0.002014
    42  H    0.201645   0.002007
    43  H    0.217495  -0.000815
    44  Co  -0.041706   1.701576
 Sum of Mulliken charges =  -0.00000   2.00000

 Dipole moment (field-independent basis, Debye):
    X=             -0.0008    Y=             -3.3806    Z=             -0.0005  Tot=              3.3806
 Quadrupole moment (field-independent basis, Debye-Ang):
   XX=           -135.4655   YY=           -133.2162   ZZ=           -173.9352
   XY=             -0.0007   XZ=             -0.0005   YZ=              0.0011

 Normal termination of Gaussian 16 at Wed Jul 17 21:33:32 2024.
