 Gaussian 16, Revision C.01,
 Gaussian 16:  ES64L-G16RevC.01  3-Jul-2019

 ----------------------------------------------------------------------
 # opt freq genecp nosymm em=gd3bj g09default pbe1pbe scf=(xqc,maxcycle
 =64) guess=indo
 ----------------------------------------------------------------------

 ----------
 Title Card
 ----------
 Symbolic Z-matrix:
 Charge =  0 Multiplicity = 3

 SCF Done:  E(UPBE1PBE) =  -1212.13547847     A.U. after   56 cycles
 SCF Done:  E(UPBE1PBE) =  -1212.13765329     A.U. after   32 cycles
 SCF Done:  E(UPBE1PBE) =  -1212.13783444     A.U. after   35 cycles
 SCF Done:  E(UPBE1PBE) =  -1212.13785277     A.U. after   22 cycles
 Optimization completed.
    -- Stationary point found.
 Normal termination of Gaussian 16 at Wed Jul 17 20:28:16 2024.

 --------------------------------------------------------------------
 #N Geom=AllCheck Guess=TCheck SCRF=Check GenChk UPBE1PBE/GenECP Freq
 --------------------------------------------------------------------

 Structure from the checkpoint file:  "b.chk"
 ----------
 Title Card
 ----------
 Charge =  0 Multiplicity = 3

                          Input orientation:
 ---------------------------------------------------------------------
 Center     Atomic      Atomic             Coordinates (Angstroms)
 Number     Number       Type             X           Y           Z
 ---------------------------------------------------------------------
      1          6           0        0.000002    0.680015    0.000082
      2          6           0       -1.216419    1.356950    0.000036
      3          6           0       -1.231548    2.748520   -0.000001
      4          6           0        0.000001    3.416063    0.000013
      5          6           0        1.231550    2.748521    0.000051
      6          6           0        1.216422    1.356951    0.000080
      7          1           0       -2.151343    3.322127   -0.000045
      8          1           0        0.000001    4.502271   -0.000011
      9          1           0        2.151345    3.322128    0.000051
     10          6           0        3.657878    0.575868   -0.000020
     11          6           0        1.890767   -0.896589    0.000090
     12          6           0        4.162974   -0.739580   -0.000102
     13          6           0        4.522762    1.663789   -0.000051
     14          6           0        5.526638   -1.001681   -0.000206
     15          6           0        5.894577    1.400531   -0.000168
     16          1           0        4.158989    2.683783    0.000014
     17          6           0        6.389343    0.095571   -0.000241
     18          1           0        5.907085   -2.018465   -0.000251
     19          1           0        6.589482    2.234959   -0.000196
     20          1           0        7.462317   -0.071107   -0.000322
     21          6           0       -3.657875    0.575864   -0.000031
     22          6           0       -1.890761   -0.896590    0.000034
     23          6           0       -4.162968   -0.739585   -0.000064
     24          6           0       -4.522760    1.663783   -0.000049
     25          6           0       -5.526632   -1.001689   -0.000104
     26          6           0       -5.894575    1.400523   -0.000096
     27          1           0       -4.158989    2.683778   -0.000021
     28          6           0       -6.389338    0.095562   -0.000121
     29          1           0       -5.907078   -2.018473   -0.000111
     30          1           0       -6.589481    2.234949   -0.000109
     31          1           0       -7.462313   -0.071118   -0.000150
     32          7           0       -2.280669    0.445569    0.000011
     33          7           0       -3.072576   -1.590161   -0.000037
     34          7           0        2.280672    0.445570    0.000092
     35          7           0        3.072583   -1.590157   -0.000047
     36          6           0        3.173546   -3.023055    0.000003
     37          1           0        3.703487   -3.376196   -0.892080
     38          1           0        3.703069   -3.376194    0.892338
     39          1           0        2.165681   -3.442111   -0.000241
     40          6           0       -3.173536   -3.023058    0.000041
     41          1           0       -3.702998   -3.376187    0.892417
     42          1           0       -3.703537   -3.376213   -0.892001
     43          1           0       -2.165671   -3.442113   -0.000268
     44         27           0        0.000002   -1.169246    0.000131
 ---------------------------------------------------------------------

 SCF Done:  E(UPBE1PBE) =  -1212.13785277     A.U. after    2 cycles

 Alpha  occ. eigenvalues --  -14.45070 -14.45070 -14.44610 -14.44609 -10.27368
 Alpha  occ. eigenvalues --  -10.27368 -10.27244 -10.27243 -10.27176 -10.27175
 Alpha  occ. eigenvalues --  -10.26938 -10.26938 -10.26213 -10.26213 -10.23622
 Alpha  occ. eigenvalues --  -10.23622 -10.23467 -10.23467 -10.22987 -10.22987
 Alpha  occ. eigenvalues --  -10.22897 -10.22897 -10.22516 -10.22279 -10.22274
 Alpha  occ. eigenvalues --  -10.19820  -3.93712  -2.46459  -2.43681  -2.42817
 Alpha  occ. eigenvalues --   -1.06070  -1.05978  -0.96513  -0.96029  -0.88042
 Alpha  occ. eigenvalues --   -0.87603  -0.85787  -0.80048  -0.78821  -0.77647
 Alpha  occ. eigenvalues --   -0.77538  -0.75694  -0.75053  -0.73029  -0.72839
 Alpha  occ. eigenvalues --   -0.66614  -0.65102  -0.64309  -0.63799  -0.62906
 Alpha  occ. eigenvalues --   -0.61238  -0.58832  -0.57957  -0.56240  -0.53836
 Alpha  occ. eigenvalues --   -0.53042  -0.52032  -0.49741  -0.49654  -0.49356
 Alpha  occ. eigenvalues --   -0.48081  -0.47335  -0.47155  -0.46908  -0.45828
 Alpha  occ. eigenvalues --   -0.45738  -0.45063  -0.44767  -0.44746  -0.44030
 Alpha  occ. eigenvalues --   -0.42435  -0.42065  -0.41641  -0.39000  -0.38932
 Alpha  occ. eigenvalues --   -0.38641  -0.38089  -0.37468  -0.37278  -0.36696
 Alpha  occ. eigenvalues --   -0.36171  -0.34857  -0.34725  -0.33758  -0.32191
 Alpha  occ. eigenvalues --   -0.31832  -0.30171  -0.30165  -0.27247  -0.26986
 Alpha  occ. eigenvalues --   -0.26548  -0.26014  -0.24610  -0.23819  -0.22950
 Alpha  occ. eigenvalues --   -0.20883  -0.20848  -0.09778
 Alpha virt. eigenvalues --   -0.05766  -0.02137  -0.00045   0.00246   0.00371
 Alpha virt. eigenvalues --    0.02335   0.03011   0.03796   0.04461   0.05631
 Alpha virt. eigenvalues --    0.06510   0.07891   0.07963   0.09815   0.10262

  Beta  occ. eigenvalues --  -14.44933 -14.44933 -14.44580 -14.44579 -10.27252
  Beta  occ. eigenvalues --  -10.27252 -10.27182 -10.27182 -10.27161 -10.27160
  Beta  occ. eigenvalues --  -10.26974 -10.26973 -10.26059 -10.26059 -10.23565
  Beta  occ. eigenvalues --  -10.23565 -10.23438 -10.23438 -10.22988 -10.22988
  Beta  occ. eigenvalues --  -10.22867 -10.22867 -10.22401 -10.22382 -10.22319
  Beta  occ. eigenvalues --  -10.20123  -3.87166  -2.38897  -2.38126  -2.34833
  Beta  occ. eigenvalues --   -1.05861  -1.05768  -0.96304  -0.95806  -0.87984
  Beta  occ. eigenvalues --   -0.87526  -0.85741  -0.79948  -0.78762  -0.77582
  Beta  occ. eigenvalues --   -0.77459  -0.75544  -0.74859  -0.73026  -0.72869
  Beta  occ. eigenvalues --   -0.66630  -0.64818  -0.64082  -0.63809  -0.62832
  Beta  occ. eigenvalues --   -0.61135  -0.58790  -0.57891  -0.56201  -0.53780
  Beta  occ. eigenvalues --   -0.53003  -0.51958  -0.49378  -0.49271  -0.49203
  Beta  occ. eigenvalues --   -0.48002  -0.47296  -0.47133  -0.46834  -0.45788
  Beta  occ. eigenvalues --   -0.45721  -0.45011  -0.44748  -0.44344  -0.43722
  Beta  occ. eigenvalues --   -0.42444  -0.42035  -0.41634  -0.39036  -0.38626
  Beta  occ. eigenvalues --   -0.38475  -0.37564  -0.37263  -0.36656  -0.36252
  Beta  occ. eigenvalues --   -0.36146  -0.34852  -0.34168  -0.33106  -0.31440
  Beta  occ. eigenvalues --   -0.30559  -0.29577  -0.26307  -0.26051  -0.25212
  Beta  occ. eigenvalues --   -0.24698  -0.23940  -0.22120  -0.21031  -0.20533
  Beta  occ. eigenvalues --   -0.19991
  Beta virt. eigenvalues --   -0.04529  -0.04185  -0.01371  -0.00289   0.00146
  Beta virt. eigenvalues --    0.01256   0.01775   0.02484   0.03765   0.05644
  Beta virt. eigenvalues --    0.06005   0.06056   0.08146   0.09148   0.09180

 Mulliken charges and spin densities:
               1          2
     1  C   -0.291898  -0.178260
     2  C    0.341361   0.101366
     3  C   -0.189154  -0.074909
     4  C   -0.203106   0.128501
     5  C   -0.189154  -0.074909
     6  C    0.341361   0.101366
     7  H    0.172798   0.000735
     8  H    0.166268  -0.006703
     9  H    0.172798   0.000735
    10  C    0.313419  -0.003661
    11  C    0.374903   0.179162
    12  C    0.285573  -0.021026
    13  C   -0.190785   0.018621
    14  C   -0.212492   0.041153
    15  C   -0.189676   0.020559
    16  H    0.189344  -0.001163
    17  C   -0.186251  -0.004451
    18  H    0.173044  -0.002179
    19  H    0.169625  -0.001285
    20  H    0.168734  -0.000095
    21  C    0.313419  -0.003661
    22  C    0.374902   0.179163
    23  C    0.285573  -0.021026
    24  C   -0.190785   0.018621
    25  C   -0.212492   0.041153
    26  C   -0.189677   0.020559
    27  H    0.189344  -0.001163
    28  C   -0.186250  -0.004451
    29  H    0.173043  -0.002179
    30  H    0.169625  -0.001285
    31  H    0.168734  -0.000095
    32  N   -0.718885  -0.003095
    33  N   -0.602925   0.041013
    34  N   -0.718885  -0.003095
    35  N   -0.602925   0.041013
    36  C   -0.397781  -0.004577
    37  H    0.202601   0.002150
    38  H    0.202609   0.002154
    39  H    0.214134  -0.000498
    40  C   -0.397781  -0.004577
    41  H    0.202609   0.002154
    42  H    0.202601   0.002150
    43  H    0.214134  -0.000498
    44  Co   0.088350   1.476510
 Sum of Mulliken charges =  -0.00000   2.00000

 Dipole moment (field-independent basis, Debye):
    X=              0.0000    Y=             -3.3567    Z=             -0.0003  Tot=              3.3567
 Quadrupole moment (field-independent basis, Debye-Ang):
   XX=           -136.9393   YY=           -132.2805   ZZ=           -173.8291
   XY=             -0.0000   XZ=             -0.0004   YZ=              0.0004

  Exact polarizability:     778.544       0.000     319.847      -0.009      -0.003     110.456
 Approx polarizability:    1024.030       0.000     559.406      -0.002      -0.006     205.464

                      1                      2                      3
                      A                      A                      A
 Frequencies --     26.6154                49.3634                60.1374
 Red. masses --      6.6672                 3.6622                 1.4195
 Frc consts  --      0.0028                 0.0053                 0.0030
 IR Inten    --      0.4870                 0.0000                 0.0000

                      4                      5                      6
                      A                      A                      A
 Frequencies --     60.4172                80.4054                81.9429
 Red. masses --      1.5225                 2.4443                 1.9890
 Frc consts  --      0.0033                 0.0093                 0.0079
 IR Inten    --      1.8168                 0.0000                 2.0283

                      7                      8                      9
                      A                      A                      A
 Frequencies --     90.8746               129.1531               131.7084
 Red. masses --      5.3595                 3.1308                 2.9735
 Frc consts  --      0.0261                 0.0308                 0.0304
 IR Inten    --      0.1735                 1.7704                 0.0000

                     10                     11                     12
                      A                      A                      A
 Frequencies --    158.7011               160.6546               196.0081
 Red. masses --      5.1447                 7.0114                 4.6472
 Frc consts  --      0.0763                 0.1066                 0.1052
 IR Inten    --      0.1672                 1.0543                 0.0188

                     13                     14                     15
                      A                      A                      A
 Frequencies --    203.5431               216.1860               240.0988
 Red. masses --      3.7686                 5.8239                 3.1072
 Frc consts  --      0.0920                 0.1604                 0.1055
 IR Inten    --      0.0000                11.3234                 0.7734

                     16                     17                     18
                      A                      A                      A
 Frequencies --    278.9663               298.3175               317.6182
 Red. masses --      3.6734                 5.9015                10.2411
 Frc consts  --      0.1684                 0.3094                 0.6087
 IR Inten    --      0.3194                 0.0000                 0.7635

                     19                     20                     21
                      A                      A                      A
 Frequencies --    318.2546               325.5833               326.0733
 Red. masses --      5.5804                 5.2213                 8.6210
 Frc consts  --      0.3330                 0.3261                 0.5401
 IR Inten    --      2.8297                 0.0000                 0.6850

                     22                     23                     24
                      A                      A                      A
 Frequencies --    345.5241               393.3207               434.9519
 Red. masses --      7.3493                 6.1512                 3.1705
 Frc consts  --      0.5170                 0.5607                 0.3534
 IR Inten    --      2.0390                54.9716                 0.0000

                     25                     26                     27
                      A                      A                      A
 Frequencies --    437.8350               439.2116               446.1196
 Red. masses --      7.7134                 3.3270                 6.0011
 Frc consts  --      0.8712                 0.3781                 0.7037
 IR Inten    --      0.1161                19.6539                27.2246

                     28                     29                     30
                      A                      A                      A
 Frequencies --    514.7947               561.2095               562.8030
 Red. masses --      4.2276                 5.8276                 5.7525
 Frc consts  --      0.6601                 1.0814                 1.0735
 IR Inten    --     18.9106                18.3622                10.3492

                     31                     32                     33
                      A                      A                      A
 Frequencies --    573.0853               583.9701               584.5080
 Red. masses --      6.1003                 4.4371                 4.2201
 Frc consts  --      1.1804                 0.8915                 0.8495
 IR Inten    --      0.0000                 0.0000                 0.2127

                     34                     35                     36
                      A                      A                      A
 Frequencies --    601.1389               614.0736               637.5961
 Red. masses --      5.3905                 4.9675                 7.1140
 Frc consts  --      1.1477                 1.1036                 1.7039
 IR Inten    --      4.0587                 4.0245                 2.3163

                     37                     38                     39
                      A                      A                      A
 Frequencies --    646.3048               649.2445               650.1575
 Red. masses --      6.8745                 5.8136                 5.5674
 Frc consts  --      1.6919                 1.4438                 1.3866
 IR Inten    --      0.0000                30.9046                 7.7546

                     40                     41                     42
                      A                      A                      A
 Frequencies --    707.3355               730.5879               735.8313
 Red. masses --      6.8533                 6.5683                 1.3976
 Frc consts  --      2.0202                 2.0656                 0.4458
 IR Inten    --      0.8708                37.0476                21.8320

                     43                     44                     45
                      A                      A                      A
 Frequencies --    743.1740               746.2108               753.7881
 Red. masses --      1.3095                 1.2806                 3.8465
 Frc consts  --      0.4261                 0.4201                 1.2877
 IR Inten    --      0.0000                88.0869                 0.0000

                     46                     47                     48
                      A                      A                      A
 Frequencies --    754.3555               802.1331               806.8334
 Red. masses --      3.7091                 5.2593                 7.4854
 Frc consts  --      1.2436                 1.9937                 2.8710
 IR Inten    --      0.4884                 8.2324               279.3232

                     49                     50                     51
                      A                      A                      A
 Frequencies --    824.3592               831.6201               832.4271
 Red. masses --      5.2343                 1.5251                 5.9167
 Frc consts  --      2.0958                 0.6214                 2.4156
 IR Inten    --      1.3122                 0.0000                 4.3924

                     52                     53                     54
                      A                      A                      A
 Frequencies --    836.0304               844.3446               852.4184
 Red. masses --      5.9521                 1.5035                 1.4312
 Frc consts  --      2.4511                 0.6315                 0.6127
 IR Inten    --     10.1756                 5.5739                 0.0000

                     55                     56                     57
                      A                      A                      A
 Frequencies --    900.8436               902.6020               932.6848
 Red. masses --      1.3585                 1.3527                 1.2653
 Frc consts  --      0.6495                 0.6493                 0.6485
 IR Inten    --     11.1526                 0.0000                 4.7356

                     58                     59                     60
                      A                      A                      A
 Frequencies --    953.3558               964.3554               964.4721
 Red. masses --      7.1591                 1.2374                 1.2371
 Frc consts  --      3.8337                 0.6780                 0.6780
 IR Inten    --      0.1185                 0.0000                 0.1063

                     61                     62                     63
                      A                      A                      A
 Frequencies --   1036.5009              1049.0165              1062.6276
 Red. masses --      4.4799                 4.5348                 2.3001
 Frc consts  --      2.8357                 2.9402                 1.5302
 IR Inten    --    651.9776                 3.7204                 2.4302

                     64                     65                     66
                      A                      A                      A
 Frequencies --   1062.8156              1105.7484              1106.1672
 Red. masses --      2.0227                 1.9492                 2.1184
 Frc consts  --      1.3461                 1.4042                 1.5272
 IR Inten    --      9.6647                 6.7083               713.6923

                     67                     68                     69
                      A                      A                      A
 Frequencies --   1124.3782              1135.6552              1154.0038
 Red. masses --      1.7608                 2.7706                 1.4549
 Frc consts  --      1.3115                 2.1053                 1.1416
 IR Inten    --     12.1712                 0.1989                 2.2875

                     70                     71                     72
                      A                      A                      A
 Frequencies --   1160.5349              1160.5382              1170.0851
 Red. masses --      1.3118                 1.3139                 1.8652
 Frc consts  --      1.0410                 1.0426                 1.5045
 IR Inten    --      0.0333                 0.0000                20.8552

                     73                     74                     75
                      A                      A                      A
 Frequencies --   1172.2822              1188.3369              1193.5138
 Red. masses --      3.4582                 1.2106                 1.1211
 Frc consts  --      2.8000                 1.0073                 0.9409
 IR Inten    --    294.0445               131.5470                 0.7741

                     76                     77                     78
                      A                      A                      A
 Frequencies --   1205.1324              1222.3337              1246.0298
 Red. masses --      1.2798                 3.1891                 4.1218
 Frc consts  --      1.0951                 2.8074                 3.7705
 IR Inten    --    197.9077                92.3424                35.8549

                     79                     80                     81
                      A                      A                      A
 Frequencies --   1257.8219              1268.0533              1314.9869
 Red. masses --      3.2459                 1.9562                 2.0575
 Frc consts  --      3.0257                 1.8533                 2.0962
 IR Inten    --     23.9286               123.9472               976.4405

                     82                     83                     84
                      A                      A                      A
 Frequencies --   1332.4157              1371.9611              1395.6499
 Red. masses --      1.8764                 2.2409                 4.0820
 Frc consts  --      1.9627                 2.4852                 4.6847
 IR Inten    --      2.2527               240.1945                 0.2560

                     85                     86                     87
                      A                      A                      A
 Frequencies --   1397.2608              1424.4738              1425.1883
 Red. masses --      6.3406                 4.4305                 5.5430
 Frc consts  --      7.2935                 5.2968                 6.6334
 IR Inten    --    701.6323                 7.3166                 2.1348

                     88                     89                     90
                      A                      A                      A
 Frequencies --   1440.2343              1440.7035              1452.7239
 Red. masses --      3.9686                 3.8164                 2.9073
 Frc consts  --      4.8501                 4.6671                 3.6150
 IR Inten    --    140.9542                20.0665                75.4002

                     91                     92                     93
                      A                      A                      A
 Frequencies --   1465.3088              1479.3423              1480.4580
 Red. masses --      3.0025                 1.4072                 1.4547
 Frc consts  --      3.7984                 1.8145                 1.8785
 IR Inten    --     75.1854                60.7198                21.5622

                     94                     95                     96
                      A                      A                      A
 Frequencies --   1503.7143              1504.0687              1505.9574
 Red. masses --      1.0377                 2.7028                 1.0384
 Frc consts  --      1.3825                 3.6025                 1.3875
 IR Inten    --      0.0001                67.7030                25.0947

                     97                     98                     99
                      A                      A                      A
 Frequencies --   1521.9905              1529.7521              1534.8246
 Red. masses --      2.6630                 1.8332                 2.2238
 Frc consts  --      3.6345                 2.5275                 3.0865
 IR Inten    --      0.3022                30.5092                19.5482

                    100                    101                    102
                      A                      A                      A
 Frequencies --   1545.1703              1547.9812              1552.6698
 Red. masses --      1.6450                 1.7861                 3.9445
 Frc consts  --      2.3141                 2.5217                 5.6027
 IR Inten    --      6.1944               203.3771               187.1898

                    103                    104                    105
                      A                      A                      A
 Frequencies --   1560.5651              1643.7737              1646.0711
 Red. masses --      3.9326                 6.9860                 7.1965
 Frc consts  --      5.6427                11.1215                11.4887
 IR Inten    --      5.7977                 7.5734                 5.5587

                    106                    107                    108
                      A                      A                      A
 Frequencies --   1680.8120              1683.8521              1685.2414
 Red. masses --      7.3607                 7.3305                 7.3620
 Frc consts  --     12.2520                12.2460                12.3188
 IR Inten    --     50.3785                 2.2822                79.1762

                    109                    110                    111
                      A                      A                      A
 Frequencies --   1688.3914              3066.9191              3067.6932
 Red. masses --      7.5379                 1.0348                 1.0349
 Frc consts  --     12.6604                 5.7347                 5.7383
 IR Inten    --      8.3357                72.9172                98.3855

                    112                    113                    114
                      A                      A                      A
 Frequencies --   3133.9243              3134.1749              3185.2354
 Red. masses --      1.1059                 1.1059                 1.1014
 Frc consts  --      6.3993                 6.4002                 6.5839
 IR Inten    --      0.0000                28.5453                16.6507

                    115                    116                    117
                      A                      A                      A
 Frequencies --   3185.2587              3220.4755              3220.6312
 Red. masses --      1.1014                 1.0859                 1.0858
 Frc consts  --      6.5840                 6.6356                 6.6357
 IR Inten    --      0.3833                 0.1360                 1.5814

                    118                    119                    120
                      A                      A                      A
 Frequencies --   3221.5987              3232.5039              3232.5803
 Red. masses --      1.0873                 1.0908                 1.0909
 Frc consts  --      6.6485                 6.7157                 6.7164
 IR Inten    --      6.4230                21.4433                19.5130

                    121                    122                    123
                      A                      A                      A
 Frequencies --   3243.9396              3244.2089              3249.0011
 Red. masses --      1.0961                 1.0965                 1.0924
 Frc consts  --      6.7960                 6.7996                 6.7942
 IR Inten    --     53.9803                 1.5826                 1.5540

                    124                    125                    126
                      A                      A                      A
 Frequencies --   3253.4453              3271.4842              3271.7883
 Red. masses --      1.0954                 1.0921                 1.0923
 Frc consts  --      6.8317                 6.8863                 6.8889
 IR Inten    --      5.3740                 1.7572                16.9169

 - Thermochemistry -
 -------------------
 Temperature   298.150 Kelvin.  Pressure   1.00000 Atm.
 Atom     1 has atomic number  6 and mass  12.00000

 Molecular mass:   396.07852 amu.
 Principal axes and moments of inertia in atomic units:
                           1         2         3
     Eigenvalues --  3835.50760********************
           X            1.00000  -0.00000   0.00000
           Y            0.00000   1.00000   0.00001
           Z           -0.00000  -0.00001   1.00000
 This molecule is an asymmetric top.
 Rotational symmetry number  1.
 Warning -- assumption of classical behavior for rotation
           may cause significant error
 Rotational temperatures (Kelvin)      0.02258     0.00488     0.00402
 Rotational constants (GHZ):           0.47054     0.10176     0.08375
 Zero-point vibrational energy     909869.0 (Joules/Mol)
                                  217.46391 (Kcal/Mol)
 Warning -- explicit consideration of  35 degrees of freedom as
           vibrations may cause significant error
 Vibrational temperatures:     38.29    71.02    86.52    86.93   115.69
          (Kelvin)            117.90   130.75   185.82   189.50   228.34
                              231.15   282.01   292.85   311.04   345.45
                              401.37   429.21   456.98   457.90   468.44
                              469.15   497.13   565.90   625.80   629.95
                              631.93   641.87   740.67   807.45   809.75
                              824.54   840.20   840.98   864.90   883.51
                              917.36   929.89   934.12   935.43  1017.70
                             1051.15  1058.70  1069.26  1073.63  1084.53
                             1085.35  1154.09  1160.85  1186.07  1196.51
                             1197.68  1202.86  1214.82  1226.44  1296.11
                             1298.64  1341.92  1371.66  1387.49  1387.66
                             1491.29  1509.30  1528.88  1529.15  1590.92
                             1591.53  1617.73  1633.95  1660.35  1669.75
                             1669.75  1683.49  1686.65  1709.75  1717.20
                             1733.91  1758.66  1792.76  1809.72  1824.44
                             1891.97  1917.05  1973.94  2008.03  2010.34
                             2049.50  2050.53  2072.17  2072.85  2090.14
                             2108.25  2128.44  2130.05  2163.51  2164.02
                             2166.73  2189.80  2200.97  2208.27  2223.15
                             2227.20  2233.94  2245.30  2365.02  2368.33
                             2418.31  2422.68  2424.68  2429.22  4412.61
                             4413.72  4509.01  4509.37  4582.84  4582.87
                             4633.54  4633.76  4635.16  4650.85  4650.96
                             4667.30  4667.69  4674.58  4680.98  4706.93
                             4707.37

 Zero-point correction=                           0.346551 (Hartree/Particle)
 Thermal correction to Energy=                    0.368062
 Thermal correction to Enthalpy=                  0.369006
 Thermal correction to Gibbs Free Energy=         0.294660
 Sum of electronic and zero-point Energies=          -1211.791302
 Sum of electronic and thermal Energies=             -1211.769791
 Sum of electronic and thermal Enthalpies=           -1211.768847
 Sum of electronic and thermal Free Energies=        -1211.843193

                     E (Thermal)             CV                S
                      KCal/Mol        Cal/Mol-Kelvin    Cal/Mol-Kelvin
 Total                  230.962             85.540            156.475
 Electronic               0.000              0.000              2.183
 Translational            0.889              2.981             43.821
 Rotational               0.889              2.981             35.637
 Vibrational            229.185             79.579             74.833
 Vibration     1          0.593              1.984              6.067
 Vibration     2          0.595              1.978              4.843
 Vibration     3          0.597              1.973              4.453
 Vibration     4          0.597              1.973              4.444
 Vibration     5          0.600              1.962              3.881
 Vibration     6          0.600              1.962              3.844
 Vibration     7          0.602              1.956              3.641
 Vibration     8          0.612              1.924              2.959
 Vibration     9          0.612              1.922              2.921
 Vibration    10          0.621              1.893              2.565
 Vibration    11          0.622              1.891              2.542
 Vibration    12          0.636              1.845              2.170
 Vibration    13          0.639              1.835              2.101
 Vibration    14          0.645              1.816              1.991
 Vibration    15          0.657              1.779              1.802
 Vibration    16          0.679              1.712              1.540
 Vibration    17          0.691              1.677              1.426
 Vibration    18          0.704              1.640              1.322
 Vibration    19          0.705              1.639              1.319
 Vibration    20          0.710              1.624              1.282
 Vibration    21          0.710              1.623              1.279
 Vibration    22          0.724              1.584              1.187
 Vibration    23          0.761              1.484              0.988
 Vibration    24          0.796              1.394              0.843
 Vibration    25          0.798              1.388              0.833
 Vibration    26          0.799              1.385              0.829
 Vibration    27          0.805              1.369              0.808
 Vibration    28          0.870              1.217              0.622
 Vibration    29          0.917              1.115              0.521
 Vibration    30          0.919              1.112              0.518
 Vibration    31          0.929              1.089              0.498
 Vibration    32          0.941              1.066              0.478
 Vibration    33          0.941              1.065              0.477
 Vibration    34          0.959              1.029              0.448
 Vibration    35          0.973              1.002              0.426

 Optimization completed.
    -- Stationary point found.
 Normal termination of Gaussian 16 at Wed Jul 17 20:34:20 2024.
