 Gaussian 16, Revision C.01,
 Gaussian 16:  ES64L-G16RevC.01  3-Jul-2019

 ----------------------------------------------------------------------
 # scf=(xqc,maxcycle=64) force guess=read oniom(b3lyp/em=gd3bj/6-31g(d)
 :pm6) nosymm
 ----------------------------------------------------------------------

 ----------
 Title Card
 ----------
 Symbolic Z-matrix:
 Charge =  0 Multiplicity = 1 for low   level calculation on real  system.
 Charge =  0 Multiplicity = 3 for high  level calculation on model system.
 Charge =  0 Multiplicity = 3 for low   level calculation on model system.

                          Input orientation:
 ---------------------------------------------------------------------
 Center     Atomic      Atomic             Coordinates (Angstroms)
 Number     Number       Type             X           Y           Z
 ---------------------------------------------------------------------
      1          6           0        0.549308   -0.173311   -0.174019
      2          6           0       -0.089092   -1.290211    0.428738
      3          6           0       -0.277482    0.873423   -0.651549
      4          6           0       -1.462838   -1.360136    0.528534
      5          1           0        0.526567   -2.108149    0.798862
      6          6           0        1.971306   -0.133210   -0.315927
      7          6           0       -1.654246    0.808479   -0.516422
      8          1           0        0.171111    1.730992   -1.146143
      9          6           0       -2.262593   -0.307686    0.059079
     10          1           0       -1.929257   -2.241339    0.961781
     11          6           0        2.685384    0.908566   -0.994966
     12          1           0        2.520805   -0.988132    0.082866
     13          1           0       -2.262293    1.631730   -0.883473
     14          1           0       -3.345263   -0.368845    0.128330
     15          1           0        3.641865    1.284802   -0.638589
     16          1           0        2.371901    1.291201   -1.965033
     17          6           0        4.981456    0.556282    1.989673
     18          1           0        5.265994    1.141890    1.090361
     19          1           0        3.985360    0.865706    2.369314
     20         17           0        6.194897    0.773187    3.248987
     21         17           0        4.935634   -1.170934    1.571433
     22          6           0        5.719186   -1.063304   -1.562717
     23          1           0        4.643782   -1.123351   -1.289840
     24          1           0        6.338576   -1.657481   -0.859905
     25         17           0        6.252075    0.627490   -1.526230
     26         17           0        5.950535   -1.653981   -3.212185
     27          6           0        2.113043    3.181756    1.547636
     28          1           0        1.849338    2.140567    1.257102
     29          1           0        1.362085    3.898296    1.150119
     30         17           0        3.720470    3.591385    0.923267
     31         17           0        2.197482    3.315098    3.311660
     32          6           0       -2.247912    0.805873    3.501049
     33          1           0       -1.894277   -0.245816    3.543404
     34          1           0       -2.211822    1.284469    4.502774
     35         17           0       -3.909638    0.840905    2.884898
     36         17           0       -1.242911    1.719103    2.362574
     37          6           0       -1.039363    4.546960    4.561102
     38          1           0       -0.367837    5.420424    4.677745
     39          1           0       -0.879735    4.060815    3.575214
     40         17           0       -2.722277    5.052167    4.717339
     41         17           0       -0.713417    3.377624    5.859557
     42          6           0        4.433612    1.068378   -4.436805
     43          1           0        3.886997    0.246429   -3.926390
     44          1           0        5.530230    0.906700   -4.369465
     45         17           0        4.022936    2.625453   -3.687201
     46         17           0        3.932771    1.161363   -6.129408
     47          6           0       -5.428760    1.953797   -0.384302
     48          1           0       -6.321965    1.367464   -0.088707
     49          1           0       -4.651392    1.922290    0.408427
     50         17           0       -5.898007    3.633771   -0.681506
     51         17           0       -4.776885    1.295209   -1.891557
     52          6           0       -1.595783    0.989886   -4.098208
     53          1           0       -1.932604    1.302031   -5.108161
     54          1           0       -2.144507    1.538405   -3.301266
     55         17           0        0.144771    1.306549   -3.936414
     56         17           0       -1.838205   -0.750500   -3.899976
     57          6           0       -1.423039    5.898505    0.750166
     58          1           0       -1.059756    6.128027   -0.275545
     59          1           0       -2.297815    6.527932    1.014677
     60         17           0       -0.112032    6.190996    1.908378
     61         17           0       -1.862135    4.184439    0.878596
     62          6           0        1.106627    0.336620    4.950899
     63          1           0        0.729498    1.340454    4.659804
     64          1           0        1.955124    0.421212    5.658981
     65         17           0        1.624438   -0.543554    3.507369
     66         17           0       -0.200374   -0.587169    5.709154
     67          6           0        1.066040   -2.169920   -3.029499
     68          1           0        0.194129   -2.769025   -3.358751
     69          1           0        0.744313   -1.161832   -2.686263
     70         17           0        2.215338   -2.014250   -4.364000
     71         17           0        1.895661   -3.012088   -1.707116
     72          6           0        1.872710    3.924504   -5.940630
     73          1           0        2.843532    3.814006   -6.466090
     74          1           0        1.776052    3.155439   -5.147230
     75         17           0        1.771287    5.543214   -5.219216
     76         17           0        0.537920    3.772347   -7.085408
     77          6           0       -1.507650    4.644693   -3.679148
     78          1           0       -0.521158    4.263508   -4.017923
     79          1           0       -1.539653    5.750895   -3.761680
     80         17           0       -2.805412    3.935395   -4.650866
     81         17           0       -1.804920    4.156596   -1.997562
     82          6           0        2.146266    5.981855   -1.625793
     83          1           0        2.761163    5.938571   -2.547942
     84          1           0        2.778580    5.941634   -0.715697
     85         17           0        1.184387    7.465078   -1.624999
     86         17           0        1.012489    4.618895   -1.611844
     87          6           0       -4.376936    6.888486   -1.685863
     88          1           0       -5.349356    6.946148   -2.214907
     89          1           0       -4.085414    5.829847   -1.514706
     90         17           0       -3.136366    7.708318   -2.646188
     91         17           0       -4.495715    7.733603   -0.136935
 ---------------------------------------------------------------------

 SCF Done:  E(UPM6) = -0.403628169883     A.U. after    2 cycles
 SCF Done:  E(UB3LYP) =  -309.578696199     A.U. after    1 cycles
 SCF Done:  E(UPM6) =  0.111873701054     A.U. after    2 cycles

 Alpha  occ. eigenvalues --   -1.09802  -1.00346  -0.95879  -0.91122  -0.81579
 Alpha  occ. eigenvalues --   -0.77995  -0.71826  -0.63927  -0.58855  -0.56941
 Alpha  occ. eigenvalues --   -0.54484  -0.52343  -0.51359  -0.50498  -0.48554
 Alpha  occ. eigenvalues --   -0.45051  -0.43346  -0.40816  -0.37123  -0.35884
 Alpha  occ. eigenvalues --   -0.29959
 Alpha virt. eigenvalues --    0.01880   0.02564   0.09695   0.15266   0.15584
 Alpha virt. eigenvalues --    0.17235   0.18251   0.18323   0.18989   0.19654
 Alpha virt. eigenvalues --    0.20357   0.20837   0.21488   0.22028   0.22281

  Beta  occ. eigenvalues --   -1.09676  -0.99664  -0.95777  -0.90069  -0.80867
  Beta  occ. eigenvalues --   -0.77780  -0.71127  -0.63326  -0.58198  -0.56559
  Beta  occ. eigenvalues --   -0.53514  -0.52214  -0.50156  -0.49001  -0.47577
  Beta  occ. eigenvalues --   -0.44516  -0.43102  -0.36779  -0.36248
  Beta virt. eigenvalues --   -0.03385   0.02201   0.02697   0.07010   0.10844
  Beta virt. eigenvalues --    0.15707   0.15953   0.17908   0.18492   0.18873
  Beta virt. eigenvalues --    0.19478   0.20279   0.20717   0.21327   0.21800

 Mulliken charges and spin densities:
               1          2
     1  C    0.042969  -0.376976
     2  C   -0.173235   0.443492
     3  C   -0.160849   0.457589
     4  C   -0.135154  -0.363040
     5  H    0.147882  -0.015521
     6  C   -0.171202   0.793421
     7  C   -0.141074  -0.365620
     8  H    0.151135  -0.016136
     9  C   -0.146579   0.447205
    10  H    0.144568   0.012629
    11  C   -0.304754   1.037109
    12  H    0.152650  -0.009435
    13  H    0.144482   0.012775
    14  H    0.145201  -0.015381
    15  H    0.151604  -0.022314
    16  H    0.152356  -0.019796
    17  C    0.000000   0.000000
    18  H    0.000000   0.000000
    19  H    0.000000   0.000000
    20  Cl   0.000000   0.000000
    21  Cl   0.000000   0.000000
    22  C    0.000000   0.000000
    23  H    0.000000   0.000000
    24  H    0.000000   0.000000
    25  Cl   0.000000   0.000000
    26  Cl   0.000000   0.000000
    27  C    0.000000   0.000000
    28  H    0.000000   0.000000
    29  H    0.000000   0.000000
    30  Cl   0.000000   0.000000
    31  Cl   0.000000   0.000000
    32  C    0.000000   0.000000
    33  H    0.000000   0.000000
    34  H    0.000000   0.000000
    35  Cl   0.000000   0.000000
    36  Cl   0.000000   0.000000
    37  C    0.000000   0.000000
    38  H    0.000000   0.000000
    39  H    0.000000   0.000000
    40  Cl   0.000000   0.000000
    41  Cl   0.000000   0.000000
    42  C    0.000000   0.000000
    43  H    0.000000   0.000000
    44  H    0.000000   0.000000
    45  Cl   0.000000   0.000000
    46  Cl   0.000000   0.000000
    47  C    0.000000   0.000000
    48  H    0.000000   0.000000
    49  H    0.000000   0.000000
    50  Cl   0.000000   0.000000
    51  Cl   0.000000   0.000000
    52  C    0.000000   0.000000
    53  H    0.000000   0.000000
    54  H    0.000000   0.000000
    55  Cl   0.000000   0.000000
    56  Cl   0.000000   0.000000
    57  C    0.000000   0.000000
    58  H    0.000000   0.000000
    59  H    0.000000   0.000000
    60  Cl   0.000000   0.000000
    61  Cl   0.000000   0.000000
    62  C    0.000000   0.000000
    63  H    0.000000   0.000000
    64  H    0.000000   0.000000
    65  Cl   0.000000   0.000000
    66  Cl   0.000000   0.000000
    67  C    0.000000   0.000000
    68  H    0.000000   0.000000
    69  H    0.000000   0.000000
    70  Cl   0.000000   0.000000
    71  Cl   0.000000   0.000000
    72  C    0.000000   0.000000
    73  H    0.000000   0.000000
    74  H    0.000000   0.000000
    75  Cl   0.000000   0.000000
    76  Cl   0.000000   0.000000
    77  C    0.000000   0.000000
    78  H    0.000000   0.000000
    79  H    0.000000   0.000000
    80  Cl   0.000000   0.000000
    81  Cl   0.000000   0.000000
    82  C    0.000000   0.000000
    83  H    0.000000   0.000000
    84  H    0.000000   0.000000
    85  Cl   0.000000   0.000000
    86  Cl   0.000000   0.000000
    87  C    0.000000   0.000000
    88  H    0.000000   0.000000
    89  H    0.000000   0.000000
    90  Cl   0.000000   0.000000
    91  Cl   0.000000   0.000000
 Sum of Mulliken charges =  -0.00000   2.00000

 Dipole moment (field-independent basis, Debye):
    X=              0.0473    Y=             -0.0708    Z=             -0.1871  Tot=              0.2056
 N-N= 1.844629716318D+02 E-N=-2.803740346011D+02  KE=-6.318975598080D+01
 Calling FoFJK, ICntrl=      2127 FMM=F ISym2X=0 I1Cent= 0 IOpClX= 1 NMat=1 NMatS=1 NMatT=0.
 Cartesian Forces:  Max     0.023444840 RMS     0.003166201
 SvSCFP is copying densities from files   528 and   530 to   603.
 ONIOM: saving gridpoint  1
 ONIOM: restoring gridpoint  3
 ONIOM: calculating energy.
 ONIOM: gridpoint  1 method:  low   system:  model energy:     0.111873701054
 ONIOM: gridpoint  2 method:  high  system:  model energy:  -309.578696198740
 ONIOM: gridpoint  3 method:  low   system:  real  energy:    -0.403628169883

 Normal termination of Gaussian 16 at Fri Jul 12 22:41:15 2024.
