 Gaussian 16, Revision C.01,
 Gaussian 16:  ES64L-G16RevC.01  3-Jul-2019

 ----------------------------------------------------------------------
 # scf=(xqc,maxcycle=64) force guess=read oniom(td/b3lyp/em=gd3bj/6-31g
 (d):pm6) nosymm
 ----------------------------------------------------------------------

 ----------
 Title Card
 ----------
 Symbolic Z-matrix:
 Charge =  0 Multiplicity = 1 for low   level calculation on real  system.
 Charge =  0 Multiplicity = 1 for high  level calculation on model system.
 Charge =  0 Multiplicity = 1 for low   level calculation on model system.

                          Input orientation:
 ---------------------------------------------------------------------
 Center     Atomic      Atomic             Coordinates (Angstroms)
 Number     Number       Type             X           Y           Z
 ---------------------------------------------------------------------
      1          6           0        0.554745   -0.176602   -0.180355
      2          6           0       -0.084155   -1.294419    0.415665
      3          6           0       -0.267136    0.881262   -0.646783
      4          6           0       -1.456168   -1.356549    0.529453
      5          1           0        0.536779   -2.113084    0.774896
      6          6           0        1.975895   -0.146679   -0.309594
      7          6           0       -1.644198    0.816052   -0.510724
      8          1           0        0.185725    1.753019   -1.112750
      9          6           0       -2.252482   -0.302445    0.059431
     10          1           0       -1.918973   -2.224287    0.992412
     11          6           0        2.686355    0.888274   -1.004725
     12          1           0        2.521582   -0.998540    0.102701
     13          1           0       -2.256885    1.647987   -0.852268
     14          1           0       -3.335478   -0.357341    0.136624
     15          1           0        3.612833    1.316249   -0.630804
     16          1           0        2.331767    1.282910   -1.954878
     17          6           0        4.974492    0.556342    1.994104
     18          1           0        5.257966    1.146311    1.097256
     19          1           0        3.976959    0.860751    2.373980
     20         17           0        6.185766    0.772522    3.255776
     21         17           0        4.936079   -1.169484    1.569844
     22          6           0        5.728944   -1.068273   -1.560766
     23          1           0        4.651227   -1.113707   -1.294411
     24          1           0        6.336405   -1.674398   -0.857633
     25         17           0        6.282576    0.615708   -1.514048
     26         17           0        5.960591   -1.654990   -3.211716
     27          6           0        2.107834    3.184389    1.543102
     28          1           0        1.831101    2.146203    1.254315
     29          1           0        1.360057    3.910050    1.155909
     30         17           0        3.712008    3.579682    0.901015
     31         17           0        2.212009    3.312421    3.306227
     32          6           0       -2.260328    0.813928    3.477006
     33          1           0       -1.887802   -0.231432    3.508049
     34          1           0       -2.200160    1.293742    4.476713
     35         17           0       -3.939135    0.825370    2.910479
     36         17           0       -1.296680    1.738028    2.312764
     37          6           0       -1.049869    4.559711    4.580811
     38          1           0       -0.381805    5.434794    4.706518
     39          1           0       -0.879634    4.074362    3.596304
     40         17           0       -2.734786    5.063094    4.719859
     41         17           0       -0.733824    3.386851    5.878131
     42          6           0        4.434031    1.087895   -4.446377
     43          1           0        3.876391    0.278463   -3.928253
     44          1           0        5.528510    0.912874   -4.376327
     45         17           0        4.039721    2.655273   -3.709628
     46         17           0        3.936848    1.170514   -6.140527
     47          6           0       -5.425216    1.970056   -0.388772
     48          1           0       -6.319718    1.402098   -0.062624
     49          1           0       -4.625899    1.929911    0.381497
     50         17           0       -5.876081    3.655542   -0.683789
     51         17           0       -4.826663    1.290477   -1.908660
     52          6           0       -1.590932    0.981381   -4.086588
     53          1           0       -1.918975    1.298095   -5.097922
     54          1           0       -2.148083    1.526940   -3.293552
     55         17           0        0.147678    1.301204   -3.909088
     56         17           0       -1.833424   -0.759393   -3.897207
     57          6           0       -1.406740    5.893466    0.760596
     58          1           0       -1.043980    6.119132   -0.265724
     59          1           0       -2.289225    6.513334    1.022068
     60         17           0       -0.102131    6.201840    1.921784
     61         17           0       -1.832436    4.177258    0.889184
     62          6           0        1.110066    0.331026    4.941516
     63          1           0        0.734036    1.330345    4.634568
     64          1           0        1.955504    0.426768    5.652182
     65         17           0        1.635195   -0.569953    3.513585
     66         17           0       -0.200641   -0.582188    5.705308
     67          6           0        1.067553   -2.170895   -3.027809
     68          1           0        0.189421   -2.761606   -3.355641
     69          1           0        0.751801   -1.165706   -2.670918
     70         17           0        2.207688   -2.004343   -4.368859
     71         17           0        1.905554   -3.032199   -1.723010
     72          6           0        1.870803    3.927129   -5.953477
     73          1           0        2.841041    3.817456   -6.480365
     74          1           0        1.776644    3.160399   -5.157446
     75         17           0        1.766393    5.547673   -5.236682
     76         17           0        0.535265    3.767444   -7.096402
     77          6           0       -1.523166    4.621969   -3.683602
     78          1           0       -0.542405    4.217264   -4.011073
     79          1           0       -1.530016    5.730616   -3.733962
     80         17           0       -2.812895    3.973819   -4.705030
     81         17           0       -1.848883    4.108829   -2.014424
     82          6           0        2.157554    5.970045   -1.624071
     83          1           0        2.773379    5.929594   -2.546015
     84          1           0        2.797465    5.934104   -0.718579
     85         17           0        1.185525    7.446178   -1.619696
     86         17           0        1.023278    4.604576   -1.608792
     87          6           0       -4.377417    6.878066   -1.686459
     88          1           0       -5.349452    6.935876   -2.216242
     89          1           0       -4.075277    5.819439   -1.535279
     90         17           0       -3.142546    7.727184   -2.628309
     91         17           0       -4.508394    7.690855   -0.121309
 ---------------------------------------------------------------------

 SCF Done:  E(UPM6) = -0.404691741530     A.U. after   11 cycles
 SCF Done:  E(UB3LYP) =  -309.636202672     A.U. after    9 cycles

 Excitation energies and oscillator strengths:

 Excited state symmetry could not be determined.
 Excited State   1:  3.000-?Sym    0.8717 eV 1422.35 nm  f=0.0000  <S**2>=2.000
     26A -> 29A        0.14466
     26A -> 31A        0.12704
     28A -> 29A       -0.78211
     28A -> 31A       -0.12711
     26B -> 29B       -0.14466
     26B -> 31B       -0.12704
     28B -> 29B        0.78211
     28B -> 31B        0.12711
     28A <- 29A       -0.38502
     28B <- 29B        0.38502
 This state for optimization and/or second-order correction.
 Total Energy, E(TD-HF/TD-DFT) =  -309.604168834
 Copying the excited state density for this state as the 1-particle RhoCI density.

 Excited state symmetry could not be determined.
 Excited State   2:  3.000-?Sym    3.7359 eV  331.88 nm  f=0.0000  <S**2>=2.000
     26A -> 29A       -0.45822
     27A -> 29A        0.29109
     27A -> 30A       -0.27731
     28A -> 31A        0.31823
     26B -> 29B        0.45822
     27B -> 29B       -0.29109
     27B -> 30B        0.27731
     28B -> 31B       -0.31823

 Excited state symmetry could not be determined.
 Excited State   3:  3.000-?Sym    3.8727 eV  320.15 nm  f=0.0000  <S**2>=2.000
     26A -> 29A        0.23079
     27A -> 29A        0.54608
     27A -> 30A        0.11051
     28A -> 30A        0.31622
     28A -> 31A       -0.14671
     26B -> 29B       -0.23079
     27B -> 29B       -0.54608
     27B -> 30B       -0.11051
     28B -> 30B       -0.31622
     28B -> 31B        0.14671

 SCF Done:  E(UPM6) =  0.859956240790E-01 A.U. after   16 cycles

 Alpha  occ. eigenvalues --   -1.09813  -1.00262  -0.95884  -0.90602  -0.81245
 Alpha  occ. eigenvalues --   -0.77838  -0.71434  -0.63774  -0.58659  -0.56677
 Alpha  occ. eigenvalues --   -0.54030  -0.52325  -0.50890  -0.49745  -0.48179
 Alpha  occ. eigenvalues --   -0.44834  -0.43226  -0.39548  -0.36789  -0.32086
 Alpha virt. eigenvalues --    0.00618   0.01799   0.04421   0.10006   0.15594
 Alpha virt. eigenvalues --    0.15639   0.17729   0.18316   0.18549   0.19284
 Alpha virt. eigenvalues --    0.19850   0.20423   0.21120   0.21557   0.22342

  Beta  occ. eigenvalues --   -1.09754  -1.00188  -0.95837  -0.90741  -0.81278
  Beta  occ. eigenvalues --   -0.77848  -0.71523  -0.63600  -0.58576  -0.56741
  Beta  occ. eigenvalues --   -0.54153  -0.52283  -0.50902  -0.49538  -0.48038
  Beta  occ. eigenvalues --   -0.44717  -0.43232  -0.38715  -0.36157  -0.34111
  Beta virt. eigenvalues --   -0.01176   0.02384   0.05194   0.10527   0.15538
  Beta virt. eigenvalues --    0.15802   0.17710   0.18390   0.18615   0.19288
  Beta virt. eigenvalues --    0.19900   0.20611   0.21068   0.21505   0.22292

 Mulliken charges and spin densities:
               1          2
     1  C    0.029351  -0.393395
     2  C   -0.172028   0.380550
     3  C   -0.158079   0.390175
     4  C   -0.135378  -0.320933
     5  H    0.147458  -0.013332
     6  C   -0.149091   0.705272
     7  C   -0.141757  -0.322008
     8  H    0.150939  -0.013382
     9  C   -0.146733   0.381236
    10  H    0.144597   0.011197
    11  C   -0.310643  -0.841229
    12  H    0.149823  -0.034131
    13  H    0.144558   0.011281
    14  H    0.145011  -0.013140
    15  H    0.151003   0.035354
    16  H    0.150969   0.036487
    17  C    0.000000   0.000000
    18  H    0.000000   0.000000
    19  H    0.000000   0.000000
    20  Cl   0.000000   0.000000
    21  Cl   0.000000   0.000000
    22  C    0.000000   0.000000
    23  H    0.000000   0.000000
    24  H    0.000000   0.000000
    25  Cl   0.000000   0.000000
    26  Cl   0.000000   0.000000
    27  C    0.000000   0.000000
    28  H    0.000000   0.000000
    29  H    0.000000   0.000000
    30  Cl   0.000000   0.000000
    31  Cl   0.000000   0.000000
    32  C    0.000000   0.000000
    33  H    0.000000   0.000000
    34  H    0.000000   0.000000
    35  Cl   0.000000   0.000000
    36  Cl   0.000000   0.000000
    37  C    0.000000   0.000000
    38  H    0.000000   0.000000
    39  H    0.000000   0.000000
    40  Cl   0.000000   0.000000
    41  Cl   0.000000   0.000000
    42  C    0.000000   0.000000
    43  H    0.000000   0.000000
    44  H    0.000000   0.000000
    45  Cl   0.000000   0.000000
    46  Cl   0.000000   0.000000
    47  C    0.000000   0.000000
    48  H    0.000000   0.000000
    49  H    0.000000   0.000000
    50  Cl   0.000000   0.000000
    51  Cl   0.000000   0.000000
    52  C    0.000000   0.000000
    53  H    0.000000   0.000000
    54  H    0.000000   0.000000
    55  Cl   0.000000   0.000000
    56  Cl   0.000000   0.000000
    57  C    0.000000   0.000000
    58  H    0.000000   0.000000
    59  H    0.000000   0.000000
    60  Cl   0.000000   0.000000
    61  Cl   0.000000   0.000000
    62  C    0.000000   0.000000
    63  H    0.000000   0.000000
    64  H    0.000000   0.000000
    65  Cl   0.000000   0.000000
    66  Cl   0.000000   0.000000
    67  C    0.000000   0.000000
    68  H    0.000000   0.000000
    69  H    0.000000   0.000000
    70  Cl   0.000000   0.000000
    71  Cl   0.000000   0.000000
    72  C    0.000000   0.000000
    73  H    0.000000   0.000000
    74  H    0.000000   0.000000
    75  Cl   0.000000   0.000000
    76  Cl   0.000000   0.000000
    77  C    0.000000   0.000000
    78  H    0.000000   0.000000
    79  H    0.000000   0.000000
    80  Cl   0.000000   0.000000
    81  Cl   0.000000   0.000000
    82  C    0.000000   0.000000
    83  H    0.000000   0.000000
    84  H    0.000000   0.000000
    85  Cl   0.000000   0.000000
    86  Cl   0.000000   0.000000
    87  C    0.000000   0.000000
    88  H    0.000000   0.000000
    89  H    0.000000   0.000000
    90  Cl   0.000000   0.000000
    91  Cl   0.000000   0.000000
 Sum of Mulliken charges =   0.00000   0.00000

 Dipole moment (field-independent basis, Debye):
    X=              0.0087    Y=             -0.0168    Z=             -0.1010  Tot=              0.1028
 N-N= 1.845872776855D+02 E-N=-2.806156398573D+02  KE=-6.322921883127D+01
 Calling FoFJK, ICntrl=      2127 FMM=F ISym2X=0 I1Cent= 0 IOpClX= 1 NMat=1 NMatS=1 NMatT=0.
 Cartesian Forces:  Max     0.029682345 RMS     0.004232477
 SvSCFP is copying densities from files   528 and   530 to   603.
 ONIOM: saving gridpoint  1
 ONIOM: restoring gridpoint  3
 ONIOM: calculating energy.
 ONIOM: gridpoint  1 method:  low   system:  model energy:     0.085995624079
 ONIOM: gridpoint  2 method:  high  system:  model energy:  -309.604168833846
 ONIOM: gridpoint  3 method:  low   system:  real  energy:    -0.404691741530

 Normal termination of Gaussian 16 at Fri Jul 12 22:52:39 2024.
