 Gaussian 16, Revision C.01,
 Gaussian 16:  ES64L-G16RevC.01  3-Jul-2019

 ----------------------------------------------------------------------
 # scf=(xqc,maxcycle=64) force guess=read oniom(b3lyp/em=gd3bj/6-31g(d)
 :pm6) nosymm
 ----------------------------------------------------------------------

 ----------
 Title Card
 ----------
 Symbolic Z-matrix:
 Charge =  0 Multiplicity = 1 for low   level calculation on real  system.
 Charge =  0 Multiplicity = 3 for high  level calculation on model system.
 Charge =  0 Multiplicity = 3 for low   level calculation on model system.

                          Input orientation:
 ---------------------------------------------------------------------
 Center     Atomic      Atomic             Coordinates (Angstroms)
 Number     Number       Type             X           Y           Z
 ---------------------------------------------------------------------
      1          6           0        0.554745   -0.176602   -0.180355
      2          6           0       -0.084155   -1.294419    0.415665
      3          6           0       -0.267136    0.881262   -0.646783
      4          6           0       -1.456168   -1.356549    0.529453
      5          1           0        0.536779   -2.113084    0.774896
      6          6           0        1.975895   -0.146679   -0.309594
      7          6           0       -1.644198    0.816052   -0.510724
      8          1           0        0.185725    1.753019   -1.112750
      9          6           0       -2.252482   -0.302445    0.059431
     10          1           0       -1.918973   -2.224287    0.992412
     11          6           0        2.686355    0.888274   -1.004725
     12          1           0        2.521582   -0.998540    0.102701
     13          1           0       -2.256885    1.647987   -0.852268
     14          1           0       -3.335478   -0.357341    0.136624
     15          1           0        3.612833    1.316249   -0.630804
     16          1           0        2.331767    1.282910   -1.954878
     17          6           0        4.974492    0.556342    1.994104
     18          1           0        5.257966    1.146311    1.097256
     19          1           0        3.976959    0.860751    2.373980
     20         17           0        6.185766    0.772522    3.255776
     21         17           0        4.936079   -1.169484    1.569844
     22          6           0        5.728944   -1.068273   -1.560766
     23          1           0        4.651227   -1.113707   -1.294411
     24          1           0        6.336405   -1.674398   -0.857633
     25         17           0        6.282576    0.615708   -1.514048
     26         17           0        5.960591   -1.654990   -3.211716
     27          6           0        2.107834    3.184389    1.543102
     28          1           0        1.831101    2.146203    1.254315
     29          1           0        1.360057    3.910050    1.155909
     30         17           0        3.712008    3.579682    0.901015
     31         17           0        2.212009    3.312421    3.306227
     32          6           0       -2.260328    0.813928    3.477006
     33          1           0       -1.887802   -0.231432    3.508049
     34          1           0       -2.200160    1.293742    4.476713
     35         17           0       -3.939135    0.825370    2.910479
     36         17           0       -1.296680    1.738028    2.312764
     37          6           0       -1.049869    4.559711    4.580811
     38          1           0       -0.381805    5.434794    4.706518
     39          1           0       -0.879634    4.074362    3.596304
     40         17           0       -2.734786    5.063094    4.719859
     41         17           0       -0.733824    3.386851    5.878131
     42          6           0        4.434031    1.087895   -4.446377
     43          1           0        3.876391    0.278463   -3.928253
     44          1           0        5.528510    0.912874   -4.376327
     45         17           0        4.039721    2.655273   -3.709628
     46         17           0        3.936848    1.170514   -6.140527
     47          6           0       -5.425216    1.970056   -0.388772
     48          1           0       -6.319718    1.402098   -0.062624
     49          1           0       -4.625899    1.929911    0.381497
     50         17           0       -5.876081    3.655542   -0.683789
     51         17           0       -4.826663    1.290477   -1.908660
     52          6           0       -1.590932    0.981381   -4.086588
     53          1           0       -1.918975    1.298095   -5.097922
     54          1           0       -2.148083    1.526940   -3.293552
     55         17           0        0.147678    1.301204   -3.909088
     56         17           0       -1.833424   -0.759393   -3.897207
     57          6           0       -1.406740    5.893466    0.760596
     58          1           0       -1.043980    6.119132   -0.265724
     59          1           0       -2.289225    6.513334    1.022068
     60         17           0       -0.102131    6.201840    1.921784
     61         17           0       -1.832436    4.177258    0.889184
     62          6           0        1.110066    0.331026    4.941516
     63          1           0        0.734036    1.330345    4.634568
     64          1           0        1.955504    0.426768    5.652182
     65         17           0        1.635195   -0.569953    3.513585
     66         17           0       -0.200641   -0.582188    5.705308
     67          6           0        1.067553   -2.170895   -3.027809
     68          1           0        0.189421   -2.761606   -3.355641
     69          1           0        0.751801   -1.165706   -2.670918
     70         17           0        2.207688   -2.004343   -4.368859
     71         17           0        1.905554   -3.032199   -1.723010
     72          6           0        1.870803    3.927129   -5.953477
     73          1           0        2.841041    3.817456   -6.480365
     74          1           0        1.776644    3.160399   -5.157446
     75         17           0        1.766393    5.547673   -5.236682
     76         17           0        0.535265    3.767444   -7.096402
     77          6           0       -1.523166    4.621969   -3.683602
     78          1           0       -0.542405    4.217264   -4.011073
     79          1           0       -1.530016    5.730616   -3.733962
     80         17           0       -2.812895    3.973819   -4.705030
     81         17           0       -1.848883    4.108829   -2.014424
     82          6           0        2.157554    5.970045   -1.624071
     83          1           0        2.773379    5.929594   -2.546015
     84          1           0        2.797465    5.934104   -0.718579
     85         17           0        1.185525    7.446178   -1.619696
     86         17           0        1.023278    4.604576   -1.608792
     87          6           0       -4.377417    6.878066   -1.686459
     88          1           0       -5.349452    6.935876   -2.216242
     89          1           0       -4.075277    5.819439   -1.535279
     90         17           0       -3.142546    7.727184   -2.628309
     91         17           0       -4.508394    7.690855   -0.121309
 ---------------------------------------------------------------------

 SCF Done:  E(UPM6) = -0.404691741530     A.U. after   11 cycles
 SCF Done:  E(UB3LYP) =  -309.578736273     A.U. after   11 cycles
 SCF Done:  E(UPM6) =  0.111581644249     A.U. after   14 cycles

 Alpha  occ. eigenvalues --   -1.09868  -1.00453  -0.95936  -0.91046  -0.81641
 Alpha  occ. eigenvalues --   -0.77966  -0.71805  -0.63958  -0.58918  -0.56894
 Alpha  occ. eigenvalues --   -0.54581  -0.52393  -0.51435  -0.50341  -0.48610
 Alpha  occ. eigenvalues --   -0.45093  -0.43346  -0.40838  -0.37162  -0.35899
 Alpha  occ. eigenvalues --   -0.29954
 Alpha virt. eigenvalues --    0.01861   0.02556   0.09678   0.15245   0.15596
 Alpha virt. eigenvalues --    0.17229   0.18213   0.18332   0.18975   0.19640
 Alpha virt. eigenvalues --    0.20339   0.20864   0.21471   0.22039   0.22267

  Beta  occ. eigenvalues --   -1.09739  -0.99776  -0.95830  -0.89992  -0.80946
  Beta  occ. eigenvalues --   -0.77731  -0.71107  -0.63360  -0.58271  -0.56513
  Beta  occ. eigenvalues --   -0.53597  -0.52257  -0.50215  -0.48890  -0.47639
  Beta  occ. eigenvalues --   -0.44550  -0.43122  -0.36813  -0.36272
  Beta virt. eigenvalues --   -0.03393   0.02200   0.02682   0.07014   0.10834
  Beta virt. eigenvalues --    0.15688   0.15952   0.17921   0.18475   0.18871
  Beta virt. eigenvalues --    0.19467   0.20248   0.20700   0.21328   0.21789

 Mulliken charges and spin densities:
               1          2
     1  C    0.041680  -0.375616
     2  C   -0.173742   0.443194
     3  C   -0.160612   0.459033
     4  C   -0.134492  -0.362878
     5  H    0.148104  -0.015525
     6  C   -0.171221   0.791199
     7  C   -0.140857  -0.365586
     8  H    0.150904  -0.016164
     9  C   -0.146987   0.447738
    10  H    0.144724   0.012631
    11  C   -0.305314   1.037807
    12  H    0.153283  -0.010527
    13  H    0.144621   0.012792
    14  H    0.145199  -0.015424
    15  H    0.151958  -0.022151
    16  H    0.152753  -0.020523
    17  C    0.000000   0.000000
    18  H    0.000000   0.000000
    19  H    0.000000   0.000000
    20  Cl   0.000000   0.000000
    21  Cl   0.000000   0.000000
    22  C    0.000000   0.000000
    23  H    0.000000   0.000000
    24  H    0.000000   0.000000
    25  Cl   0.000000   0.000000
    26  Cl   0.000000   0.000000
    27  C    0.000000   0.000000
    28  H    0.000000   0.000000
    29  H    0.000000   0.000000
    30  Cl   0.000000   0.000000
    31  Cl   0.000000   0.000000
    32  C    0.000000   0.000000
    33  H    0.000000   0.000000
    34  H    0.000000   0.000000
    35  Cl   0.000000   0.000000
    36  Cl   0.000000   0.000000
    37  C    0.000000   0.000000
    38  H    0.000000   0.000000
    39  H    0.000000   0.000000
    40  Cl   0.000000   0.000000
    41  Cl   0.000000   0.000000
    42  C    0.000000   0.000000
    43  H    0.000000   0.000000
    44  H    0.000000   0.000000
    45  Cl   0.000000   0.000000
    46  Cl   0.000000   0.000000
    47  C    0.000000   0.000000
    48  H    0.000000   0.000000
    49  H    0.000000   0.000000
    50  Cl   0.000000   0.000000
    51  Cl   0.000000   0.000000
    52  C    0.000000   0.000000
    53  H    0.000000   0.000000
    54  H    0.000000   0.000000
    55  Cl   0.000000   0.000000
    56  Cl   0.000000   0.000000
    57  C    0.000000   0.000000
    58  H    0.000000   0.000000
    59  H    0.000000   0.000000
    60  Cl   0.000000   0.000000
    61  Cl   0.000000   0.000000
    62  C    0.000000   0.000000
    63  H    0.000000   0.000000
    64  H    0.000000   0.000000
    65  Cl   0.000000   0.000000
    66  Cl   0.000000   0.000000
    67  C    0.000000   0.000000
    68  H    0.000000   0.000000
    69  H    0.000000   0.000000
    70  Cl   0.000000   0.000000
    71  Cl   0.000000   0.000000
    72  C    0.000000   0.000000
    73  H    0.000000   0.000000
    74  H    0.000000   0.000000
    75  Cl   0.000000   0.000000
    76  Cl   0.000000   0.000000
    77  C    0.000000   0.000000
    78  H    0.000000   0.000000
    79  H    0.000000   0.000000
    80  Cl   0.000000   0.000000
    81  Cl   0.000000   0.000000
    82  C    0.000000   0.000000
    83  H    0.000000   0.000000
    84  H    0.000000   0.000000
    85  Cl   0.000000   0.000000
    86  Cl   0.000000   0.000000
    87  C    0.000000   0.000000
    88  H    0.000000   0.000000
    89  H    0.000000   0.000000
    90  Cl   0.000000   0.000000
    91  Cl   0.000000   0.000000
 Sum of Mulliken charges =  -0.00000   2.00000

 Dipole moment (field-independent basis, Debye):
    X=             -0.0147    Y=              0.0257    Z=             -0.0730  Tot=              0.0788
 N-N= 1.845872776855D+02 E-N=-2.806102494748D+02  KE=-6.319356272339D+01
 Calling FoFJK, ICntrl=      2127 FMM=F ISym2X=0 I1Cent= 0 IOpClX= 1 NMat=1 NMatS=1 NMatT=0.
 Cartesian Forces:  Max     0.021561047 RMS     0.003022390
 SvSCFP is copying densities from files   528 and   530 to   603.
 ONIOM: saving gridpoint  1
 ONIOM: restoring gridpoint  3
 ONIOM: calculating energy.
 ONIOM: gridpoint  1 method:  low   system:  model energy:     0.111581644249
 ONIOM: gridpoint  2 method:  high  system:  model energy:  -309.578736273247
 ONIOM: gridpoint  3 method:  low   system:  real  energy:    -0.404691741530

 Normal termination of Gaussian 16 at Fri Jul 12 22:51:52 2024.
