 Gaussian 16, Revision C.01,
 Gaussian 16:  ES64L-G16RevC.01  3-Jul-2019

 ----------------------------------------------------------------------
 # scf=(xqc,maxcycle=64) force guess=read oniom(td/b3lyp/em=gd3bj/6-31g
 (d):pm6) nosymm
 ----------------------------------------------------------------------

 ----------
 Title Card
 ----------
 Symbolic Z-matrix:
 Charge =  0 Multiplicity = 1 for low   level calculation on real  system.
 Charge =  0 Multiplicity = 1 for high  level calculation on model system.
 Charge =  0 Multiplicity = 1 for low   level calculation on model system.

                          Input orientation:
 ---------------------------------------------------------------------
 Center     Atomic      Atomic             Coordinates (Angstroms)
 Number     Number       Type             X           Y           Z
 ---------------------------------------------------------------------
      1          6           0        0.554824   -0.176451   -0.179872
      2          6           0       -0.083821   -1.294531    0.416350
      3          6           0       -0.266475    0.881372   -0.644806
      4          6           0       -1.456135   -1.356435    0.530707
      5          1           0        0.536238   -2.114198    0.774272
      6          6           0        1.976532   -0.146284   -0.310164
      7          6           0       -1.643473    0.816741   -0.509126
      8          1           0        0.186031    1.753177   -1.111444
      9          6           0       -2.252461   -0.302143    0.061049
     10          1           0       -1.919704   -2.224423    0.991951
     11          6           0        2.686758    0.887762   -1.005009
     12          1           0        2.520171   -0.999523    0.101660
     13          1           0       -2.255550    1.647914   -0.851482
     14          1           0       -3.334928   -0.356400    0.137277
     15          1           0        3.611756    1.319713   -0.631953
     16          1           0        2.333024    1.282568   -1.955410
     17          6           0        4.974032    0.556288    1.994452
     18          1           0        5.257444    1.146484    1.097747
     19          1           0        3.976370    0.860334    2.374273
     20         17           0        6.185083    0.772621    3.256332
     21         17           0        4.936131   -1.169437    1.569769
     22          6           0        5.729496   -1.068486   -1.560682
     23          1           0        4.651686   -1.113172   -1.294623
     24          1           0        6.336162   -1.675407   -0.857555
     25         17           0        6.284386    0.615057   -1.513193
     26         17           0        5.961181   -1.654770   -3.211792
     27          6           0        2.107409    3.184578    1.542888
     28          1           0        1.829608    2.146750    1.253862
     29          1           0        1.359827    3.910690    1.156239
     30         17           0        3.711427    3.579378    0.900095
     31         17           0        2.212892    3.311992    3.305958
     32          6           0       -2.261060    0.814213    3.475745
     33          1           0       -1.887780   -0.230911    3.505840
     34          1           0       -2.199629    1.294466    4.475151
     35         17           0       -3.940726    0.824417    2.911869
     36         17           0       -1.299232    1.738802    2.310487
     37          6           0       -1.050598    4.560482    4.582063
     38          1           0       -0.382801    5.435679    4.708473
     39          1           0       -0.879662    4.075388    3.597553
     40         17           0       -2.735644    5.063683    4.720166
     41         17           0       -0.735184    3.387104    5.879038
     42          6           0        4.433931    1.089137   -4.446862
     43          1           0        3.875713    0.280264   -3.928490
     44          1           0        5.528279    0.913426   -4.376626
     45         17           0        4.040713    2.657087   -3.710756
     46         17           0        3.937124    1.171340   -6.141128
     47          6           0       -5.424922    1.971220   -0.388940
     48          1           0       -6.319432    1.404411   -0.060746
     49          1           0       -4.624132    1.930538    0.379726
     50         17           0       -5.874243    3.657103   -0.684008
     51         17           0       -4.829373    1.290283   -1.909391
     52          6           0       -1.590653    0.980971   -4.085861
     53          1           0       -1.918179    1.298021   -5.097254
     54          1           0       -2.148446    1.526250   -3.293106
     55         17           0        0.147798    1.301067   -3.907261
     56         17           0       -1.833032   -0.759840   -3.896934
     57          6           0       -1.405597    5.893346    0.760919
     58          1           0       -1.042817    6.118708   -0.265434
     59          1           0       -2.288331    6.512797    1.022452
     60         17           0       -0.101654    6.202396    1.922645
     61         17           0       -1.831015    4.177113    0.888844
     62          6           0        1.110136    0.330773    4.940800
     63          1           0        0.734332    1.329854    4.632852
     64          1           0        1.955351    0.427093    5.651656
     65         17           0        1.635681   -0.571375    3.513774
     66         17           0       -0.200863   -0.581706    5.704926
     67          6           0        1.067739   -2.171054   -3.027669
     68          1           0        0.189370   -2.761316   -3.355724
     69          1           0        0.752732   -1.166079   -2.669602
     70         17           0        2.206922   -2.003452   -4.369379
     71         17           0        1.906090   -3.033250   -1.723702
     72          6           0        1.870649    3.927257   -5.954399
     73          1           0        2.840903    3.817704   -6.481314
     74          1           0        1.776597    3.160687   -5.158219
     75         17           0        1.765783    5.547807   -5.237687
     76         17           0        0.535026    3.767052   -7.097140
     77          6           0       -1.523321    4.620712   -3.683731
     78          1           0       -0.542811    4.215418   -4.011337
     79          1           0       -1.528346    5.729406   -3.732781
     80         17           0       -2.813711    3.975137   -4.705897
     81         17           0       -1.851431    4.106441   -2.015384
     82          6           0        2.157703    5.969054   -1.624198
     83          1           0        2.773147    5.928600   -2.546413
     84          1           0        2.797339    5.932739   -0.718524
     85         17           0        1.186368    7.445572   -1.619384
     86         17           0        1.023685    4.603303   -1.608915
     87          6           0       -4.377424    6.877245   -1.686510
     88          1           0       -5.349409    6.935130   -2.216373
     89          1           0       -4.074679    5.818610   -1.536754
     90         17           0       -3.142736    7.728116   -2.626992
     91         17           0       -4.509224    7.687708   -0.120235
 ---------------------------------------------------------------------

 SCF Done:  E(UPM6) = -0.404737601611     A.U. after   11 cycles
 SCF Done:  E(UB3LYP) =  -309.636102980     A.U. after    9 cycles

 Excitation energies and oscillator strengths:

 Excited state symmetry could not be determined.
 Excited State   1:  3.000-?Sym    0.8695 eV 1425.90 nm  f=0.0000  <S**2>=2.000
     26A -> 29A        0.14486
     26A -> 31A        0.12701
     28A -> 29A       -0.78242
     28A -> 31A       -0.12729
     26B -> 29B       -0.14486
     26B -> 31B       -0.12701
     28B -> 29B        0.78242
     28B -> 31B        0.12729
     28A <- 29A       -0.38571
     28B <- 29B        0.38571
 This state for optimization and/or second-order correction.
 Total Energy, E(TD-HF/TD-DFT) =  -309.604148770
 Copying the excited state density for this state as the 1-particle RhoCI density.

 Excited state symmetry could not be determined.
 Excited State   2:  3.000-?Sym    3.7363 eV  331.84 nm  f=0.0000  <S**2>=2.000
     26A -> 29A       -0.46395
     27A -> 29A        0.27774
     27A -> 30A       -0.27965
     28A -> 29A       -0.10072
     28A -> 31A        0.32157
     26B -> 29B        0.46395
     27B -> 29B       -0.27774
     27B -> 30B        0.27965
     28B -> 29B        0.10072
     28B -> 31B       -0.32157

 Excited state symmetry could not be determined.
 Excited State   3:  3.000-?Sym    3.8699 eV  320.38 nm  f=0.0000  <S**2>=2.000
     26A -> 29A        0.21877
     27A -> 29A        0.55337
     27A -> 30A        0.10487
     28A -> 30A        0.31783
     28A -> 31A       -0.13873
     26B -> 29B       -0.21877
     27B -> 29B       -0.55337
     27B -> 30B       -0.10487
     28B -> 30B       -0.31783
     28B -> 31B        0.13873

 SCF Done:  E(UPM6) =  0.860085836337E-01 A.U. after   15 cycles

 Alpha  occ. eigenvalues --   -1.09814  -1.00265  -0.95887  -0.90618  -0.81245
 Alpha  occ. eigenvalues --   -0.77852  -0.71449  -0.63777  -0.58651  -0.56692
 Alpha  occ. eigenvalues --   -0.54026  -0.52326  -0.50909  -0.49751  -0.48174
 Alpha  occ. eigenvalues --   -0.44837  -0.43233  -0.39535  -0.36786  -0.32089
 Alpha virt. eigenvalues --    0.00614   0.01796   0.04413   0.10004   0.15599
 Alpha virt. eigenvalues --    0.15631   0.17727   0.18321   0.18549   0.19287
 Alpha virt. eigenvalues --    0.19851   0.20424   0.21119   0.21563   0.22346

  Beta  occ. eigenvalues --   -1.09755  -1.00191  -0.95839  -0.90757  -0.81278
  Beta  occ. eigenvalues --   -0.77862  -0.71537  -0.63603  -0.58569  -0.56757
  Beta  occ. eigenvalues --   -0.54147  -0.52284  -0.50922  -0.49544  -0.48035
  Beta  occ. eigenvalues --   -0.44720  -0.43240  -0.38702  -0.36158  -0.34112
  Beta virt. eigenvalues --   -0.01173   0.02377   0.05188   0.10524   0.15545
  Beta virt. eigenvalues --    0.15794   0.17708   0.18396   0.18615   0.19290
  Beta virt. eigenvalues --    0.19900   0.20611   0.21065   0.21510   0.22293

 Mulliken charges and spin densities:
               1          2
     1  C    0.029354  -0.392985
     2  C   -0.171916   0.380455
     3  C   -0.158311   0.388978
     4  C   -0.135362  -0.320620
     5  H    0.147434  -0.013320
     6  C   -0.148721   0.705401
     7  C   -0.141635  -0.321976
     8  H    0.150996  -0.013352
     9  C   -0.146738   0.380955
    10  H    0.144574   0.011181
    11  C   -0.310902  -0.840663
    12  H    0.149809  -0.034220
    13  H    0.144450   0.011262
    14  H    0.144939  -0.013113
    15  H    0.151130   0.035446
    16  H    0.150900   0.036571
    17  C    0.000000   0.000000
    18  H    0.000000   0.000000
    19  H    0.000000   0.000000
    20  Cl   0.000000   0.000000
    21  Cl   0.000000   0.000000
    22  C    0.000000   0.000000
    23  H    0.000000   0.000000
    24  H    0.000000   0.000000
    25  Cl   0.000000   0.000000
    26  Cl   0.000000   0.000000
    27  C    0.000000   0.000000
    28  H    0.000000   0.000000
    29  H    0.000000   0.000000
    30  Cl   0.000000   0.000000
    31  Cl   0.000000   0.000000
    32  C    0.000000   0.000000
    33  H    0.000000   0.000000
    34  H    0.000000   0.000000
    35  Cl   0.000000   0.000000
    36  Cl   0.000000   0.000000
    37  C    0.000000   0.000000
    38  H    0.000000   0.000000
    39  H    0.000000   0.000000
    40  Cl   0.000000   0.000000
    41  Cl   0.000000   0.000000
    42  C    0.000000   0.000000
    43  H    0.000000   0.000000
    44  H    0.000000   0.000000
    45  Cl   0.000000   0.000000
    46  Cl   0.000000   0.000000
    47  C    0.000000   0.000000
    48  H    0.000000   0.000000
    49  H    0.000000   0.000000
    50  Cl   0.000000   0.000000
    51  Cl   0.000000   0.000000
    52  C    0.000000   0.000000
    53  H    0.000000   0.000000
    54  H    0.000000   0.000000
    55  Cl   0.000000   0.000000
    56  Cl   0.000000   0.000000
    57  C    0.000000   0.000000
    58  H    0.000000   0.000000
    59  H    0.000000   0.000000
    60  Cl   0.000000   0.000000
    61  Cl   0.000000   0.000000
    62  C    0.000000   0.000000
    63  H    0.000000   0.000000
    64  H    0.000000   0.000000
    65  Cl   0.000000   0.000000
    66  Cl   0.000000   0.000000
    67  C    0.000000   0.000000
    68  H    0.000000   0.000000
    69  H    0.000000   0.000000
    70  Cl   0.000000   0.000000
    71  Cl   0.000000   0.000000
    72  C    0.000000   0.000000
    73  H    0.000000   0.000000
    74  H    0.000000   0.000000
    75  Cl   0.000000   0.000000
    76  Cl   0.000000   0.000000
    77  C    0.000000   0.000000
    78  H    0.000000   0.000000
    79  H    0.000000   0.000000
    80  Cl   0.000000   0.000000
    81  Cl   0.000000   0.000000
    82  C    0.000000   0.000000
    83  H    0.000000   0.000000
    84  H    0.000000   0.000000
    85  Cl   0.000000   0.000000
    86  Cl   0.000000   0.000000
    87  C    0.000000   0.000000
    88  H    0.000000   0.000000
    89  H    0.000000   0.000000
    90  Cl   0.000000   0.000000
    91  Cl   0.000000   0.000000
 Sum of Mulliken charges =   0.00000  -0.00000

 Dipole moment (field-independent basis, Debye):
    X=              0.0074    Y=             -0.0162    Z=             -0.1058  Tot=              0.1072
 N-N= 1.845876561384D+02 E-N=-2.806143258852D+02  KE=-6.322971948002D+01
 Calling FoFJK, ICntrl=      2127 FMM=F ISym2X=0 I1Cent= 0 IOpClX= 1 NMat=1 NMatS=1 NMatT=0.
 Cartesian Forces:  Max     0.029118321 RMS     0.004153379
 SvSCFP is copying densities from files   528 and   530 to   603.
 ONIOM: saving gridpoint  1
 ONIOM: restoring gridpoint  3
 ONIOM: calculating energy.
 ONIOM: gridpoint  1 method:  low   system:  model energy:     0.086008583634
 ONIOM: gridpoint  2 method:  high  system:  model energy:  -309.604148770303
 ONIOM: gridpoint  3 method:  low   system:  real  energy:    -0.404737601611

 Normal termination of Gaussian 16 at Fri Jul 12 22:53:40 2024.
