 Gaussian 16, Revision C.01,
 Gaussian 16:  ES64L-G16RevC.01  3-Jul-2019

 ----------------------------------------------------------------------
 # scf=(xqc,maxcycle=64) force guess=read oniom(b3lyp/em=gd3bj/6-31g(d)
 :pm6) nosymm
 ----------------------------------------------------------------------

 ----------
 Title Card
 ----------
 Symbolic Z-matrix:
 Charge =  0 Multiplicity = 1 for low   level calculation on real  system.
 Charge =  0 Multiplicity = 3 for high  level calculation on model system.
 Charge =  0 Multiplicity = 3 for low   level calculation on model system.

                          Input orientation:
 ---------------------------------------------------------------------
 Center     Atomic      Atomic             Coordinates (Angstroms)
 Number     Number       Type             X           Y           Z
 ---------------------------------------------------------------------
      1          6           0        0.554824   -0.176451   -0.179872
      2          6           0       -0.083821   -1.294531    0.416350
      3          6           0       -0.266475    0.881372   -0.644806
      4          6           0       -1.456135   -1.356435    0.530707
      5          1           0        0.536238   -2.114198    0.774272
      6          6           0        1.976532   -0.146284   -0.310164
      7          6           0       -1.643473    0.816741   -0.509126
      8          1           0        0.186031    1.753177   -1.111444
      9          6           0       -2.252461   -0.302143    0.061049
     10          1           0       -1.919704   -2.224423    0.991951
     11          6           0        2.686758    0.887762   -1.005009
     12          1           0        2.520171   -0.999523    0.101660
     13          1           0       -2.255550    1.647914   -0.851482
     14          1           0       -3.334928   -0.356400    0.137277
     15          1           0        3.611756    1.319713   -0.631953
     16          1           0        2.333024    1.282568   -1.955410
     17          6           0        4.974032    0.556288    1.994452
     18          1           0        5.257444    1.146484    1.097747
     19          1           0        3.976370    0.860334    2.374273
     20         17           0        6.185083    0.772621    3.256332
     21         17           0        4.936131   -1.169437    1.569769
     22          6           0        5.729496   -1.068486   -1.560682
     23          1           0        4.651686   -1.113172   -1.294623
     24          1           0        6.336162   -1.675407   -0.857555
     25         17           0        6.284386    0.615057   -1.513193
     26         17           0        5.961181   -1.654770   -3.211792
     27          6           0        2.107409    3.184578    1.542888
     28          1           0        1.829608    2.146750    1.253862
     29          1           0        1.359827    3.910690    1.156239
     30         17           0        3.711427    3.579378    0.900095
     31         17           0        2.212892    3.311992    3.305958
     32          6           0       -2.261060    0.814213    3.475745
     33          1           0       -1.887780   -0.230911    3.505840
     34          1           0       -2.199629    1.294466    4.475151
     35         17           0       -3.940726    0.824417    2.911869
     36         17           0       -1.299232    1.738802    2.310487
     37          6           0       -1.050598    4.560482    4.582063
     38          1           0       -0.382801    5.435679    4.708473
     39          1           0       -0.879662    4.075388    3.597553
     40         17           0       -2.735644    5.063683    4.720166
     41         17           0       -0.735184    3.387104    5.879038
     42          6           0        4.433931    1.089137   -4.446862
     43          1           0        3.875713    0.280264   -3.928490
     44          1           0        5.528279    0.913426   -4.376626
     45         17           0        4.040713    2.657087   -3.710756
     46         17           0        3.937124    1.171340   -6.141128
     47          6           0       -5.424922    1.971220   -0.388940
     48          1           0       -6.319432    1.404411   -0.060746
     49          1           0       -4.624132    1.930538    0.379726
     50         17           0       -5.874243    3.657103   -0.684008
     51         17           0       -4.829373    1.290283   -1.909391
     52          6           0       -1.590653    0.980971   -4.085861
     53          1           0       -1.918179    1.298021   -5.097254
     54          1           0       -2.148446    1.526250   -3.293106
     55         17           0        0.147798    1.301067   -3.907261
     56         17           0       -1.833032   -0.759840   -3.896934
     57          6           0       -1.405597    5.893346    0.760919
     58          1           0       -1.042817    6.118708   -0.265434
     59          1           0       -2.288331    6.512797    1.022452
     60         17           0       -0.101654    6.202396    1.922645
     61         17           0       -1.831015    4.177113    0.888844
     62          6           0        1.110136    0.330773    4.940800
     63          1           0        0.734332    1.329854    4.632852
     64          1           0        1.955351    0.427093    5.651656
     65         17           0        1.635681   -0.571375    3.513774
     66         17           0       -0.200863   -0.581706    5.704926
     67          6           0        1.067739   -2.171054   -3.027669
     68          1           0        0.189370   -2.761316   -3.355724
     69          1           0        0.752732   -1.166079   -2.669602
     70         17           0        2.206922   -2.003452   -4.369379
     71         17           0        1.906090   -3.033250   -1.723702
     72          6           0        1.870649    3.927257   -5.954399
     73          1           0        2.840903    3.817704   -6.481314
     74          1           0        1.776597    3.160687   -5.158219
     75         17           0        1.765783    5.547807   -5.237687
     76         17           0        0.535026    3.767052   -7.097140
     77          6           0       -1.523321    4.620712   -3.683731
     78          1           0       -0.542811    4.215418   -4.011337
     79          1           0       -1.528346    5.729406   -3.732781
     80         17           0       -2.813711    3.975137   -4.705897
     81         17           0       -1.851431    4.106441   -2.015384
     82          6           0        2.157703    5.969054   -1.624198
     83          1           0        2.773147    5.928600   -2.546413
     84          1           0        2.797339    5.932739   -0.718524
     85         17           0        1.186368    7.445572   -1.619384
     86         17           0        1.023685    4.603303   -1.608915
     87          6           0       -4.377424    6.877245   -1.686510
     88          1           0       -5.349409    6.935130   -2.216373
     89          1           0       -4.074679    5.818610   -1.536754
     90         17           0       -3.142736    7.728116   -2.626992
     91         17           0       -4.509224    7.687708   -0.120235
 ---------------------------------------------------------------------

 SCF Done:  E(UPM6) = -0.404737601611     A.U. after   11 cycles
 SCF Done:  E(UB3LYP) =  -309.578698175     A.U. after   12 cycles
 SCF Done:  E(UPM6) =  0.111594580856     A.U. after   15 cycles

 Alpha  occ. eigenvalues --   -1.09868  -1.00456  -0.95937  -0.91063  -0.81641
 Alpha  occ. eigenvalues --   -0.77978  -0.71820  -0.63960  -0.58911  -0.56910
 Alpha  occ. eigenvalues --   -0.54577  -0.52394  -0.51452  -0.50351  -0.48606
 Alpha  occ. eigenvalues --   -0.45098  -0.43353  -0.40822  -0.37156  -0.35899
 Alpha  occ. eigenvalues --   -0.29959
 Alpha virt. eigenvalues --    0.01860   0.02549   0.09678   0.15255   0.15588
 Alpha virt. eigenvalues --    0.17232   0.18223   0.18328   0.18974   0.19637
 Alpha virt. eigenvalues --    0.20341   0.20859   0.21476   0.22032   0.22269

  Beta  occ. eigenvalues --   -1.09740  -0.99777  -0.95831  -0.90009  -0.80945
  Beta  occ. eigenvalues --   -0.77744  -0.71121  -0.63362  -0.58263  -0.56527
  Beta  occ. eigenvalues --   -0.53589  -0.52256  -0.50235  -0.48896  -0.47635
  Beta  occ. eigenvalues --   -0.44551  -0.43130  -0.36803  -0.36274
  Beta virt. eigenvalues --   -0.03387   0.02196   0.02674   0.07005   0.10830
  Beta virt. eigenvalues --    0.15694   0.15947   0.17918   0.18482   0.18867
  Beta virt. eigenvalues --    0.19468   0.20257   0.20704   0.21328   0.21793

 Mulliken charges and spin densities:
               1          2
     1  C    0.041731  -0.375372
     2  C   -0.173656   0.443146
     3  C   -0.160885   0.457696
     4  C   -0.134465  -0.362638
     5  H    0.148077  -0.015513
     6  C   -0.170998   0.792210
     7  C   -0.140716  -0.365547
     8  H    0.150950  -0.016134
     9  C   -0.147018   0.447410
    10  H    0.144695   0.012617
    11  C   -0.305456   1.037512
    12  H    0.153301  -0.010414
    13  H    0.144506   0.012772
    14  H    0.145125  -0.015393
    15  H    0.152060  -0.021996
    16  H    0.152748  -0.020354
    17  C    0.000000   0.000000
    18  H    0.000000   0.000000
    19  H    0.000000   0.000000
    20  Cl   0.000000   0.000000
    21  Cl   0.000000   0.000000
    22  C    0.000000   0.000000
    23  H    0.000000   0.000000
    24  H    0.000000   0.000000
    25  Cl   0.000000   0.000000
    26  Cl   0.000000   0.000000
    27  C    0.000000   0.000000
    28  H    0.000000   0.000000
    29  H    0.000000   0.000000
    30  Cl   0.000000   0.000000
    31  Cl   0.000000   0.000000
    32  C    0.000000   0.000000
    33  H    0.000000   0.000000
    34  H    0.000000   0.000000
    35  Cl   0.000000   0.000000
    36  Cl   0.000000   0.000000
    37  C    0.000000   0.000000
    38  H    0.000000   0.000000
    39  H    0.000000   0.000000
    40  Cl   0.000000   0.000000
    41  Cl   0.000000   0.000000
    42  C    0.000000   0.000000
    43  H    0.000000   0.000000
    44  H    0.000000   0.000000
    45  Cl   0.000000   0.000000
    46  Cl   0.000000   0.000000
    47  C    0.000000   0.000000
    48  H    0.000000   0.000000
    49  H    0.000000   0.000000
    50  Cl   0.000000   0.000000
    51  Cl   0.000000   0.000000
    52  C    0.000000   0.000000
    53  H    0.000000   0.000000
    54  H    0.000000   0.000000
    55  Cl   0.000000   0.000000
    56  Cl   0.000000   0.000000
    57  C    0.000000   0.000000
    58  H    0.000000   0.000000
    59  H    0.000000   0.000000
    60  Cl   0.000000   0.000000
    61  Cl   0.000000   0.000000
    62  C    0.000000   0.000000
    63  H    0.000000   0.000000
    64  H    0.000000   0.000000
    65  Cl   0.000000   0.000000
    66  Cl   0.000000   0.000000
    67  C    0.000000   0.000000
    68  H    0.000000   0.000000
    69  H    0.000000   0.000000
    70  Cl   0.000000   0.000000
    71  Cl   0.000000   0.000000
    72  C    0.000000   0.000000
    73  H    0.000000   0.000000
    74  H    0.000000   0.000000
    75  Cl   0.000000   0.000000
    76  Cl   0.000000   0.000000
    77  C    0.000000   0.000000
    78  H    0.000000   0.000000
    79  H    0.000000   0.000000
    80  Cl   0.000000   0.000000
    81  Cl   0.000000   0.000000
    82  C    0.000000   0.000000
    83  H    0.000000   0.000000
    84  H    0.000000   0.000000
    85  Cl   0.000000   0.000000
    86  Cl   0.000000   0.000000
    87  C    0.000000   0.000000
    88  H    0.000000   0.000000
    89  H    0.000000   0.000000
    90  Cl   0.000000   0.000000
    91  Cl   0.000000   0.000000
 Sum of Mulliken charges =   0.00000   2.00000

 Dipole moment (field-independent basis, Debye):
    X=             -0.0145    Y=              0.0271    Z=             -0.0782  Tot=              0.0840
 N-N= 1.845876561384D+02 E-N=-2.806090350795D+02  KE=-6.319408431636D+01
 Calling FoFJK, ICntrl=      2127 FMM=F ISym2X=0 I1Cent= 0 IOpClX= 1 NMat=1 NMatS=1 NMatT=0.
 Cartesian Forces:  Max     0.022019893 RMS     0.003053021
 SvSCFP is copying densities from files   528 and   530 to   603.
 ONIOM: saving gridpoint  1
 ONIOM: restoring gridpoint  3
 ONIOM: calculating energy.
 ONIOM: gridpoint  1 method:  low   system:  model energy:     0.111594580856
 ONIOM: gridpoint  2 method:  high  system:  model energy:  -309.578698175285
 ONIOM: gridpoint  3 method:  low   system:  real  energy:    -0.404737601611

 Normal termination of Gaussian 16 at Fri Jul 12 22:52:53 2024.
