 Gaussian 16, Revision C.01,
 Gaussian 16:  ES64L-G16RevC.01  3-Jul-2019

 ----------------------------------------------------------------------
 # scf=(xqc,maxcycle=64) force guess=read oniom(td/b3lyp/em=gd3bj/6-31g
 (d):pm6) nosymm
 ----------------------------------------------------------------------

 ----------
 Title Card
 ----------
 Symbolic Z-matrix:
 Charge =  0 Multiplicity = 1 for low   level calculation on real  system.
 Charge =  0 Multiplicity = 1 for high  level calculation on model system.
 Charge =  0 Multiplicity = 1 for low   level calculation on model system.

                          Input orientation:
 ---------------------------------------------------------------------
 Center     Atomic      Atomic             Coordinates (Angstroms)
 Number     Number       Type             X           Y           Z
 ---------------------------------------------------------------------
      1          6           0        0.555177   -0.176545   -0.179123
      2          6           0       -0.083809   -1.294651    0.417002
      3          6           0       -0.265830    0.881816   -0.642653
      4          6           0       -1.455868   -1.355950    0.531951
      5          1           0        0.535772   -2.115604    0.773545
      6          6           0        1.977245   -0.145832   -0.310866
      7          6           0       -1.642755    0.817282   -0.506947
      8          1           0        0.186524    1.753303   -1.109627
      9          6           0       -2.251967   -0.301491    0.063064
     10          1           0       -1.920504   -2.224739    0.991487
     11          6           0        2.687302    0.887114   -1.005691
     12          1           0        2.519019   -1.000471    0.100589
     13          1           0       -2.254222    1.648136   -0.850497
     14          1           0       -3.334564   -0.355304    0.138253
     15          1           0        3.610678    1.323413   -0.633055
     16          1           0        2.333978    1.282226   -1.956124
     17          6           0        4.973422    0.556217    1.994899
     18          1           0        5.256766    1.146718    1.098383
     19          1           0        3.975594    0.859784    2.374655
     20         17           0        6.184174    0.772739    3.257051
     21         17           0        4.936191   -1.169383    1.569684
     22          6           0        5.730202   -1.068761   -1.560563
     23          1           0        4.652261   -1.112462   -1.294905
     24          1           0        6.335871   -1.676710   -0.857466
     25         17           0        6.286718    0.614218   -1.512080
     26         17           0        5.961933   -1.654453   -3.211894
     27          6           0        2.106835    3.184845    1.542595
     28          1           0        1.827730    2.147450    1.253274
     29          1           0        1.359491    3.911580    1.156709
     30         17           0        3.710673    3.579004    0.898921
     31         17           0        2.213976    3.311397    3.305611
     32          6           0       -2.261996    0.814569    3.474131
     33          1           0       -1.887773   -0.230258    3.503084
     34          1           0       -2.198980    1.295297    4.473197
     35         17           0       -3.942755    0.823236    2.913603
     36         17           0       -1.302464    1.739791    2.307576
     37          6           0       -1.051550    4.561471    4.583674
     38          1           0       -0.384099    5.436810    4.711039
     39          1           0       -0.879720    4.076740    3.599141
     40         17           0       -2.736768    5.064430    4.720575
     41         17           0       -0.736950    3.387416    5.880198
     42          6           0        4.433821    1.090749   -4.447498
     43          1           0        3.874824    0.282620   -3.928803
     44          1           0        5.528001    0.914132   -4.376986
     45         17           0        4.041989    2.659429   -3.712217
     46         17           0        3.937462    1.172446   -6.141904
     47          6           0       -5.424439    1.972745   -0.389145
     48          1           0       -6.319011    1.407491   -0.058350
     49          1           0       -4.621824    1.931370    0.377549
     50         17           0       -5.871868    3.659115   -0.684293
     51         17           0       -4.832901    1.290001   -1.910361
     52          6           0       -1.590303    0.980459   -4.084905
     53          1           0       -1.917136    1.297908   -5.096396
     54          1           0       -2.148928    1.525366   -3.292499
     55         17           0        0.147949    1.300905   -3.904898
     56         17           0       -1.832506   -0.760410   -3.896585
     57          6           0       -1.404148    5.893219    0.761290
     58          1           0       -1.041237    6.118278   -0.265059
     59          1           0       -2.287195    6.512177    1.022880
     60         17           0       -0.101018    6.203025    1.923706
     61         17           0       -1.829205    4.176938    0.888425
     62          6           0        1.110225    0.330464    4.939850
     63          1           0        0.734688    1.329237    4.630636
     64          1           0        1.955146    0.427510    5.650968
     65         17           0        1.636292   -0.573223    3.514001
     66         17           0       -0.201171   -0.581054    5.704393
     67          6           0        1.067988   -2.171208   -3.027490
     68          1           0        0.189321   -2.760935   -3.355754
     69          1           0        0.753842   -1.166522   -2.667915
     70         17           0        2.205999   -2.002323   -4.370016
     71         17           0        1.906820   -3.034700   -1.724699
     72          6           0        1.870418    3.927413   -5.955577
     73          1           0        2.840686    3.818054   -6.482544
     74          1           0        1.776561    3.161008   -5.159225
     75         17           0        1.764987    5.547992   -5.239006
     76         17           0        0.534716    3.766536   -7.098126
     77          6           0       -1.523575    4.619107   -3.683872
     78          1           0       -0.543423    4.212947   -4.011587
     79          1           0       -1.526205    5.727871   -3.731300
     80         17           0       -2.814725    3.976843   -4.707133
     81         17           0       -1.854376    4.103491   -2.016476
     82          6           0        2.157875    5.967678   -1.624356
     83          1           0        2.772878    5.927300   -2.546890
     84          1           0        2.797254    5.930950   -0.718501
     85         17           0        1.187395    7.444689   -1.618989
     86         17           0        1.023986    4.601731   -1.609145
     87          6           0       -4.377430    6.876132   -1.686584
     88          1           0       -5.349343    6.934180   -2.216559
     89          1           0       -4.073908    5.817478   -1.538668
     90         17           0       -3.142971    7.729319   -2.625254
     91         17           0       -4.510292    7.683595   -0.118850
 ---------------------------------------------------------------------

 SCF Done:  E(UPM6) = -0.404735695453     A.U. after   10 cycles
 SCF Done:  E(UB3LYP) =  -309.635969513     A.U. after    8 cycles

 Excitation energies and oscillator strengths:

 Excited state symmetry could not be determined.
 Excited State   1:  3.000-?Sym    0.8660 eV 1431.64 nm  f=0.0000  <S**2>=2.000
     26A -> 29A       -0.14498
     26A -> 31A       -0.12697
     28A -> 29A        0.78300
     28A -> 31A        0.12739
     26B -> 29B        0.14498
     26B -> 31B        0.12697
     28B -> 29B       -0.78300
     28B -> 31B       -0.12739
     28A <- 29A        0.38684
     28B <- 29B       -0.38684
 This state for optimization and/or second-order correction.
 Total Energy, E(TD-HF/TD-DFT) =  -309.604143455
 Copying the excited state density for this state as the 1-particle RhoCI density.

 Excited state symmetry could not be determined.
 Excited State   2:  3.000-?Sym    3.7363 eV  331.83 nm  f=0.0000  <S**2>=2.000
     26A -> 29A       -0.46710
     27A -> 29A        0.27099
     27A -> 30A       -0.28002
     28A -> 29A       -0.10134
     28A -> 31A        0.32305
     26B -> 29B        0.46710
     27B -> 29B       -0.27099
     27B -> 30B        0.28002
     28B -> 29B        0.10134
     28B -> 31B       -0.32305

 Excited state symmetry could not be determined.
 Excited State   3:  3.000-?Sym    3.8688 eV  320.47 nm  f=0.0000  <S**2>=2.000
     26A -> 29A       -0.21331
     27A -> 29A       -0.55743
     27A -> 30A       -0.10177
     28A -> 30A       -0.31716
     28A -> 31A        0.13498
     26B -> 29B        0.21331
     27B -> 29B        0.55743
     27B -> 30B        0.10177
     28B -> 30B        0.31716
     28B -> 31B       -0.13498

 SCF Done:  E(UPM6) =  0.860637377889E-01 A.U. after   15 cycles

 Alpha  occ. eigenvalues --   -1.09823  -1.00268  -0.95891  -0.90630  -0.81247
 Alpha  occ. eigenvalues --   -0.77855  -0.71458  -0.63777  -0.58639  -0.56702
 Alpha  occ. eigenvalues --   -0.54016  -0.52325  -0.50931  -0.49755  -0.48171
 Alpha  occ. eigenvalues --   -0.44836  -0.43233  -0.39525  -0.36787  -0.32088
 Alpha virt. eigenvalues --    0.00612   0.01797   0.04408   0.10005   0.15604
 Alpha virt. eigenvalues --    0.15626   0.17729   0.18320   0.18554   0.19294
 Alpha virt. eigenvalues --    0.19858   0.20425   0.21115   0.21563   0.22344

  Beta  occ. eigenvalues --   -1.09764  -1.00193  -0.95843  -0.90769  -0.81280
  Beta  occ. eigenvalues --   -0.77865  -0.71546  -0.63602  -0.58558  -0.56766
  Beta  occ. eigenvalues --   -0.54134  -0.52283  -0.50945  -0.49547  -0.48033
  Beta  occ. eigenvalues --   -0.44721  -0.43239  -0.38690  -0.36160  -0.34111
  Beta virt. eigenvalues --   -0.01173   0.02377   0.05186   0.10524   0.15548
  Beta virt. eigenvalues --    0.15789   0.17712   0.18396   0.18618   0.19296
  Beta virt. eigenvalues --    0.19906   0.20612   0.21060   0.21510   0.22288

 Mulliken charges and spin densities:
               1          2
     1  C    0.029299  -0.392759
     2  C   -0.171860   0.379811
     3  C   -0.158427   0.388271
     4  C   -0.135384  -0.319889
     5  H    0.147459  -0.013303
     6  C   -0.148451   0.705502
     7  C   -0.141638  -0.321511
     8  H    0.150974  -0.013325
     9  C   -0.146775   0.380283
    10  H    0.144630   0.011164
    11  C   -0.311110  -0.840281
    12  H    0.149801  -0.034326
    13  H    0.144399   0.011242
    14  H    0.144959  -0.013092
    15  H    0.151299   0.035566
    16  H    0.150824   0.036648
    17  C    0.000000   0.000000
    18  H    0.000000   0.000000
    19  H    0.000000   0.000000
    20  Cl   0.000000   0.000000
    21  Cl   0.000000   0.000000
    22  C    0.000000   0.000000
    23  H    0.000000   0.000000
    24  H    0.000000   0.000000
    25  Cl   0.000000   0.000000
    26  Cl   0.000000   0.000000
    27  C    0.000000   0.000000
    28  H    0.000000   0.000000
    29  H    0.000000   0.000000
    30  Cl   0.000000   0.000000
    31  Cl   0.000000   0.000000
    32  C    0.000000   0.000000
    33  H    0.000000   0.000000
    34  H    0.000000   0.000000
    35  Cl   0.000000   0.000000
    36  Cl   0.000000   0.000000
    37  C    0.000000   0.000000
    38  H    0.000000   0.000000
    39  H    0.000000   0.000000
    40  Cl   0.000000   0.000000
    41  Cl   0.000000   0.000000
    42  C    0.000000   0.000000
    43  H    0.000000   0.000000
    44  H    0.000000   0.000000
    45  Cl   0.000000   0.000000
    46  Cl   0.000000   0.000000
    47  C    0.000000   0.000000
    48  H    0.000000   0.000000
    49  H    0.000000   0.000000
    50  Cl   0.000000   0.000000
    51  Cl   0.000000   0.000000
    52  C    0.000000   0.000000
    53  H    0.000000   0.000000
    54  H    0.000000   0.000000
    55  Cl   0.000000   0.000000
    56  Cl   0.000000   0.000000
    57  C    0.000000   0.000000
    58  H    0.000000   0.000000
    59  H    0.000000   0.000000
    60  Cl   0.000000   0.000000
    61  Cl   0.000000   0.000000
    62  C    0.000000   0.000000
    63  H    0.000000   0.000000
    64  H    0.000000   0.000000
    65  Cl   0.000000   0.000000
    66  Cl   0.000000   0.000000
    67  C    0.000000   0.000000
    68  H    0.000000   0.000000
    69  H    0.000000   0.000000
    70  Cl   0.000000   0.000000
    71  Cl   0.000000   0.000000
    72  C    0.000000   0.000000
    73  H    0.000000   0.000000
    74  H    0.000000   0.000000
    75  Cl   0.000000   0.000000
    76  Cl   0.000000   0.000000
    77  C    0.000000   0.000000
    78  H    0.000000   0.000000
    79  H    0.000000   0.000000
    80  Cl   0.000000   0.000000
    81  Cl   0.000000   0.000000
    82  C    0.000000   0.000000
    83  H    0.000000   0.000000
    84  H    0.000000   0.000000
    85  Cl   0.000000   0.000000
    86  Cl   0.000000   0.000000
    87  C    0.000000   0.000000
    88  H    0.000000   0.000000
    89  H    0.000000   0.000000
    90  Cl   0.000000   0.000000
    91  Cl   0.000000   0.000000
 Sum of Mulliken charges =  -0.00000   0.00000

 Dipole moment (field-independent basis, Debye):
    X=              0.0050    Y=             -0.0160    Z=             -0.1097  Tot=              0.1110
 N-N= 1.845898456466D+02 E-N=-2.806173408488D+02  KE=-6.323019805507D+01
 Calling FoFJK, ICntrl=      2127 FMM=F ISym2X=0 I1Cent= 0 IOpClX= 1 NMat=1 NMatS=1 NMatT=0.
 Cartesian Forces:  Max     0.028420328 RMS     0.004101684
 SvSCFP is copying densities from files   528 and   530 to   603.
 ONIOM: saving gridpoint  1
 ONIOM: restoring gridpoint  3
 ONIOM: calculating energy.
 ONIOM: gridpoint  1 method:  low   system:  model energy:     0.086063737789
 ONIOM: gridpoint  2 method:  high  system:  model energy:  -309.604143454611
 ONIOM: gridpoint  3 method:  low   system:  real  energy:    -0.404735695453

 Normal termination of Gaussian 16 at Fri Jul 12 22:54:40 2024.
