 Gaussian 16, Revision C.01,
 Gaussian 16:  ES64L-G16RevC.01  3-Jul-2019

 ----------------------------------------------------------------------
 # scf=(xqc,maxcycle=64) force guess=read oniom(td/b3lyp/em=gd3bj/6-31g
 (d):pm6) nosymm
 ----------------------------------------------------------------------

 ----------
 Title Card
 ----------
 Symbolic Z-matrix:
 Charge =  0 Multiplicity = 1 for low   level calculation on real  system.
 Charge =  0 Multiplicity = 1 for high  level calculation on model system.
 Charge =  0 Multiplicity = 1 for low   level calculation on model system.

                          Input orientation:
 ---------------------------------------------------------------------
 Center     Atomic      Atomic             Coordinates (Angstroms)
 Number     Number       Type             X           Y           Z
 ---------------------------------------------------------------------
      1          6           0        0.555419   -0.176517   -0.178390
      2          6           0       -0.083443   -1.294843    0.417623
      3          6           0       -0.265388    0.882013   -0.640697
      4          6           0       -1.456007   -1.355719    0.533127
      5          1           0        0.535241   -2.116765    0.773057
      6          6           0        1.977871   -0.145423   -0.311530
      7          6           0       -1.642210    0.817797   -0.504950
      8          1           0        0.186989    1.753303   -1.108144
      9          6           0       -2.251666   -0.300699    0.064963
     10          1           0       -1.921133   -2.225065    0.990714
     11          6           0        2.687878    0.886697   -1.006447
     12          1           0        2.518405   -1.000985    0.099540
     13          1           0       -2.253255    1.648349   -0.849791
     14          1           0       -3.334337   -0.354430    0.139244
     15          1           0        3.610057    1.326067   -0.633975
     16          1           0        2.334782    1.282064   -1.956935
     17          6           0        4.972876    0.556145    1.995293
     18          1           0        5.256171    1.146911    1.098945
     19          1           0        3.974896    0.859283    2.374988
     20         17           0        6.183347    0.772853    3.257696
     21         17           0        4.936242   -1.169351    1.569629
     22          6           0        5.730795   -1.068982   -1.560460
     23          1           0        4.652742   -1.111842   -1.295144
     24          1           0        6.335622   -1.677826   -0.857411
     25         17           0        6.288710    0.613511   -1.511094
     26         17           0        5.962564   -1.654105   -3.211999
     27          6           0        2.106299    3.185101    1.542341
     28          1           0        1.826104    2.148082    1.252718
     29          1           0        1.359152    3.912392    1.157154
     30         17           0        3.710004    3.578764    0.897992
     31         17           0        2.214851    3.310801    3.305322
     32          6           0       -2.262787    0.814832    3.472793
     33          1           0       -1.887847   -0.229770    3.500802
     34          1           0       -2.198489    1.295933    4.471585
     35         17           0       -3.944434    0.822272    2.915001
     36         17           0       -1.305070    1.740568    2.305235
     37          6           0       -1.052396    4.562316    4.585063
     38          1           0       -0.385248    5.437770    4.713317
     39          1           0       -0.879795    4.077960    3.600475
     40         17           0       -2.737765    5.065046    4.720961
     41         17           0       -0.738497    3.387620    5.881147
     42          6           0        4.433725    1.092151   -4.448037
     43          1           0        3.874042    0.284651   -3.929101
     44          1           0        5.527761    0.914761   -4.377255
     45         17           0        4.043076    2.661444   -3.713436
     46         17           0        3.937742    1.173478   -6.142560
     47          6           0       -5.423918    1.974107   -0.389292
     48          1           0       -6.318571    1.410256   -0.056272
     49          1           0       -4.619781    1.932135    0.375756
     50         17           0       -5.869740    3.660879   -0.684555
     51         17           0       -4.835911    1.289748   -1.911158
     52          6           0       -1.590014    0.980050   -4.084063
     53          1           0       -1.916231    1.297821   -5.095653
     54          1           0       -2.149376    1.524616   -3.291954
     55         17           0        0.148063    1.300815   -3.902837
     56         17           0       -1.832019   -0.760879   -3.896271
     57          6           0       -1.402903    5.893169    0.761517
     58          1           0       -1.039776    6.118043   -0.264782
     59          1           0       -2.286175    6.511768    1.023164
     60         17           0       -0.100470    6.203460    1.924578
     61         17           0       -1.827735    4.176855    0.887928
     62          6           0        1.110275    0.330228    4.938986
     63          1           0        0.734972    1.328744    4.628700
     64          1           0        1.954932    0.427865    5.650347
     65         17           0        1.636773   -0.574792    3.514152
     66         17           0       -0.201492   -0.580439    5.703873
     67          6           0        1.068226   -2.171312   -3.027328
     68          1           0        0.189327   -2.760624   -3.355752
     69          1           0        0.754788   -1.166893   -2.666421
     70         17           0        2.205221   -2.001325   -4.370562
     71         17           0        1.907479   -3.036004   -1.725608
     72          6           0        1.870183    3.927533   -5.956601
     73          1           0        2.840462    3.818389   -6.483619
     74          1           0        1.776536    3.161237   -5.160122
     75         17           0        1.764243    5.548137   -5.240153
     76         17           0        0.534438    3.766069   -7.099013
     77          6           0       -1.523712    4.617766   -3.683947
     78          1           0       -0.543892    4.210885   -4.011826
     79          1           0       -1.524221    5.726576   -3.730152
     80         17           0       -2.815605    3.978156   -4.707903
     81         17           0       -1.856560    4.101174   -2.017271
     82          6           0        2.157915    5.966366   -1.624524
     83          1           0        2.772522    5.926084   -2.547342
     84          1           0        2.797050    5.929231   -0.718497
     85         17           0        1.188334    7.443918   -1.618659
     86         17           0        1.023997    4.600392   -1.609460
     87          6           0       -4.377425    6.875095   -1.686656
     88          1           0       -5.349265    6.933353   -2.216743
     89          1           0       -4.073250    5.816413   -1.540360
     90         17           0       -3.143133    7.730313   -2.623686
     91         17           0       -4.511218    7.679919   -0.117643
 ---------------------------------------------------------------------

 SCF Done:  E(UPM6) = -0.404741055064     A.U. after   11 cycles
 SCF Done:  E(UB3LYP) =  -309.635873301     A.U. after    8 cycles

 Excitation energies and oscillator strengths:

 Excited state symmetry could not be determined.
 Excited State   1:  3.000-?Sym    0.8632 eV 1436.37 nm  f=0.0000  <S**2>=2.000
     26A -> 29A       -0.14515
     26A -> 31A       -0.12690
     28A -> 29A        0.78349
     28A -> 31A        0.12759
     26B -> 29B        0.14515
     26B -> 31B        0.12690
     28B -> 29B       -0.78349
     28B -> 31B       -0.12759
     28A <- 29A        0.38785
     28B <- 29B       -0.38785
 This state for optimization and/or second-order correction.
 Total Energy, E(TD-HF/TD-DFT) =  -309.604152203
 Copying the excited state density for this state as the 1-particle RhoCI density.

 Excited state symmetry could not be determined.
 Excited State   2:  3.000-?Sym    3.7360 eV  331.86 nm  f=0.0000  <S**2>=2.000
     26A -> 29A       -0.46815
     27A -> 29A        0.26776
     27A -> 30A       -0.28114
     28A -> 29A       -0.10153
     28A -> 31A        0.32344
     26B -> 29B        0.46815
     27B -> 29B       -0.26776
     27B -> 30B        0.28114
     28B -> 29B        0.10153
     28B -> 31B       -0.32344

 Excited state symmetry could not be determined.
 Excited State   3:  3.000-?Sym    3.8674 eV  320.59 nm  f=0.0000  <S**2>=2.000
     26A -> 29A        0.21047
     27A -> 29A        0.55924
     27A -> 30A        0.10108
     28A -> 30A        0.31691
     28A -> 31A       -0.13308
     26B -> 29B       -0.21047
     27B -> 29B       -0.55924
     27B -> 30B       -0.10108
     28B -> 30B       -0.31691
     28B -> 31B        0.13308

 SCF Done:  E(UPM6) =  0.860946776630E-01 A.U. after   16 cycles

 Alpha  occ. eigenvalues --   -1.09824  -1.00266  -0.95888  -0.90639  -0.81244
 Alpha  occ. eigenvalues --   -0.77861  -0.71465  -0.63777  -0.58628  -0.56710
 Alpha  occ. eigenvalues --   -0.54011  -0.52323  -0.50947  -0.49757  -0.48168
 Alpha  occ. eigenvalues --   -0.44833  -0.43238  -0.39517  -0.36782  -0.32089
 Alpha virt. eigenvalues --    0.00613   0.01792   0.04404   0.10004   0.15610
 Alpha virt. eigenvalues --    0.15618   0.17731   0.18321   0.18556   0.19295
 Alpha virt. eigenvalues --    0.19862   0.20424   0.21113   0.21563   0.22346

  Beta  occ. eigenvalues --   -1.09766  -1.00192  -0.95840  -0.90778  -0.81278
  Beta  occ. eigenvalues --   -0.77871  -0.71553  -0.63603  -0.58547  -0.56774
  Beta  occ. eigenvalues --   -0.54128  -0.52281  -0.50961  -0.49549  -0.48030
  Beta  occ. eigenvalues --   -0.44717  -0.43246  -0.38682  -0.36156  -0.34114
  Beta virt. eigenvalues --   -0.01170   0.02371   0.05183   0.10522   0.15554
  Beta virt. eigenvalues --    0.15782   0.17714   0.18397   0.18618   0.19297
  Beta virt. eigenvalues --    0.19909   0.20610   0.21057   0.21510   0.22285

 Mulliken charges and spin densities:
               1          2
     1  C    0.029272  -0.392417
     2  C   -0.171776   0.379782
     3  C   -0.158554   0.387567
     4  C   -0.135341  -0.319782
     5  H    0.147431  -0.013294
     6  C   -0.148248   0.705846
     7  C   -0.141603  -0.321115
     8  H    0.150988  -0.013305
     9  C   -0.146840   0.379551
    10  H    0.144606   0.011153
    11  C   -0.311278  -0.840109
    12  H    0.149782  -0.034408
    13  H    0.144386   0.011227
    14  H    0.144971  -0.013069
    15  H    0.151429   0.035661
    16  H    0.150776   0.036712
    17  C    0.000000   0.000000
    18  H    0.000000   0.000000
    19  H    0.000000   0.000000
    20  Cl   0.000000   0.000000
    21  Cl   0.000000   0.000000
    22  C    0.000000   0.000000
    23  H    0.000000   0.000000
    24  H    0.000000   0.000000
    25  Cl   0.000000   0.000000
    26  Cl   0.000000   0.000000
    27  C    0.000000   0.000000
    28  H    0.000000   0.000000
    29  H    0.000000   0.000000
    30  Cl   0.000000   0.000000
    31  Cl   0.000000   0.000000
    32  C    0.000000   0.000000
    33  H    0.000000   0.000000
    34  H    0.000000   0.000000
    35  Cl   0.000000   0.000000
    36  Cl   0.000000   0.000000
    37  C    0.000000   0.000000
    38  H    0.000000   0.000000
    39  H    0.000000   0.000000
    40  Cl   0.000000   0.000000
    41  Cl   0.000000   0.000000
    42  C    0.000000   0.000000
    43  H    0.000000   0.000000
    44  H    0.000000   0.000000
    45  Cl   0.000000   0.000000
    46  Cl   0.000000   0.000000
    47  C    0.000000   0.000000
    48  H    0.000000   0.000000
    49  H    0.000000   0.000000
    50  Cl   0.000000   0.000000
    51  Cl   0.000000   0.000000
    52  C    0.000000   0.000000
    53  H    0.000000   0.000000
    54  H    0.000000   0.000000
    55  Cl   0.000000   0.000000
    56  Cl   0.000000   0.000000
    57  C    0.000000   0.000000
    58  H    0.000000   0.000000
    59  H    0.000000   0.000000
    60  Cl   0.000000   0.000000
    61  Cl   0.000000   0.000000
    62  C    0.000000   0.000000
    63  H    0.000000   0.000000
    64  H    0.000000   0.000000
    65  Cl   0.000000   0.000000
    66  Cl   0.000000   0.000000
    67  C    0.000000   0.000000
    68  H    0.000000   0.000000
    69  H    0.000000   0.000000
    70  Cl   0.000000   0.000000
    71  Cl   0.000000   0.000000
    72  C    0.000000   0.000000
    73  H    0.000000   0.000000
    74  H    0.000000   0.000000
    75  Cl   0.000000   0.000000
    76  Cl   0.000000   0.000000
    77  C    0.000000   0.000000
    78  H    0.000000   0.000000
    79  H    0.000000   0.000000
    80  Cl   0.000000   0.000000
    81  Cl   0.000000   0.000000
    82  C    0.000000   0.000000
    83  H    0.000000   0.000000
    84  H    0.000000   0.000000
    85  Cl   0.000000   0.000000
    86  Cl   0.000000   0.000000
    87  C    0.000000   0.000000
    88  H    0.000000   0.000000
    89  H    0.000000   0.000000
    90  Cl   0.000000   0.000000
    91  Cl   0.000000   0.000000
 Sum of Mulliken charges =  -0.00000   0.00000

 Dipole moment (field-independent basis, Debye):
    X=              0.0030    Y=             -0.0155    Z=             -0.1140  Tot=              0.1151
 N-N= 1.845867495518D+02 E-N=-2.806106881494D+02  KE=-6.323030024585D+01
 Calling FoFJK, ICntrl=      2127 FMM=F ISym2X=0 I1Cent= 0 IOpClX= 1 NMat=1 NMatS=1 NMatT=0.
 Cartesian Forces:  Max     0.027963620 RMS     0.004046449
 SvSCFP is copying densities from files   528 and   530 to   603.
 ONIOM: saving gridpoint  1
 ONIOM: restoring gridpoint  3
 ONIOM: calculating energy.
 ONIOM: gridpoint  1 method:  low   system:  model energy:     0.086094677663
 ONIOM: gridpoint  2 method:  high  system:  model energy:  -309.604152202777
 ONIOM: gridpoint  3 method:  low   system:  real  energy:    -0.404741055064

 Normal termination of Gaussian 16 at Fri Jul 12 22:55:40 2024.
