 Gaussian 16, Revision C.01,
 Gaussian 16:  ES64L-G16RevC.01  3-Jul-2019

 ----------------------------------------------------------------------
 # scf=(xqc,maxcycle=64) force guess=read oniom(b3lyp/em=gd3bj/6-31g(d)
 :pm6) nosymm
 ----------------------------------------------------------------------

 ----------
 Title Card
 ----------
 Symbolic Z-matrix:
 Charge =  0 Multiplicity = 1 for low   level calculation on real  system.
 Charge =  0 Multiplicity = 3 for high  level calculation on model system.
 Charge =  0 Multiplicity = 3 for low   level calculation on model system.

                          Input orientation:
 ---------------------------------------------------------------------
 Center     Atomic      Atomic             Coordinates (Angstroms)
 Number     Number       Type             X           Y           Z
 ---------------------------------------------------------------------
      1          6           0        0.555419   -0.176517   -0.178390
      2          6           0       -0.083443   -1.294843    0.417623
      3          6           0       -0.265388    0.882013   -0.640697
      4          6           0       -1.456007   -1.355719    0.533127
      5          1           0        0.535241   -2.116765    0.773057
      6          6           0        1.977871   -0.145423   -0.311530
      7          6           0       -1.642210    0.817797   -0.504950
      8          1           0        0.186989    1.753303   -1.108144
      9          6           0       -2.251666   -0.300699    0.064963
     10          1           0       -1.921133   -2.225065    0.990714
     11          6           0        2.687878    0.886697   -1.006447
     12          1           0        2.518405   -1.000985    0.099540
     13          1           0       -2.253255    1.648349   -0.849791
     14          1           0       -3.334337   -0.354430    0.139244
     15          1           0        3.610057    1.326067   -0.633975
     16          1           0        2.334782    1.282064   -1.956935
     17          6           0        4.972876    0.556145    1.995293
     18          1           0        5.256171    1.146911    1.098945
     19          1           0        3.974896    0.859283    2.374988
     20         17           0        6.183347    0.772853    3.257696
     21         17           0        4.936242   -1.169351    1.569629
     22          6           0        5.730795   -1.068982   -1.560460
     23          1           0        4.652742   -1.111842   -1.295144
     24          1           0        6.335622   -1.677826   -0.857411
     25         17           0        6.288710    0.613511   -1.511094
     26         17           0        5.962564   -1.654105   -3.211999
     27          6           0        2.106299    3.185101    1.542341
     28          1           0        1.826104    2.148082    1.252718
     29          1           0        1.359152    3.912392    1.157154
     30         17           0        3.710004    3.578764    0.897992
     31         17           0        2.214851    3.310801    3.305322
     32          6           0       -2.262787    0.814832    3.472793
     33          1           0       -1.887847   -0.229770    3.500802
     34          1           0       -2.198489    1.295933    4.471585
     35         17           0       -3.944434    0.822272    2.915001
     36         17           0       -1.305070    1.740568    2.305235
     37          6           0       -1.052396    4.562316    4.585063
     38          1           0       -0.385248    5.437770    4.713317
     39          1           0       -0.879795    4.077960    3.600475
     40         17           0       -2.737765    5.065046    4.720961
     41         17           0       -0.738497    3.387620    5.881147
     42          6           0        4.433725    1.092151   -4.448037
     43          1           0        3.874042    0.284651   -3.929101
     44          1           0        5.527761    0.914761   -4.377255
     45         17           0        4.043076    2.661444   -3.713436
     46         17           0        3.937742    1.173478   -6.142560
     47          6           0       -5.423918    1.974107   -0.389292
     48          1           0       -6.318571    1.410256   -0.056272
     49          1           0       -4.619781    1.932135    0.375756
     50         17           0       -5.869740    3.660879   -0.684555
     51         17           0       -4.835911    1.289748   -1.911158
     52          6           0       -1.590014    0.980050   -4.084063
     53          1           0       -1.916231    1.297821   -5.095653
     54          1           0       -2.149376    1.524616   -3.291954
     55         17           0        0.148063    1.300815   -3.902837
     56         17           0       -1.832019   -0.760879   -3.896271
     57          6           0       -1.402903    5.893169    0.761517
     58          1           0       -1.039776    6.118043   -0.264782
     59          1           0       -2.286175    6.511768    1.023164
     60         17           0       -0.100470    6.203460    1.924578
     61         17           0       -1.827735    4.176855    0.887928
     62          6           0        1.110275    0.330228    4.938986
     63          1           0        0.734972    1.328744    4.628700
     64          1           0        1.954932    0.427865    5.650347
     65         17           0        1.636773   -0.574792    3.514152
     66         17           0       -0.201492   -0.580439    5.703873
     67          6           0        1.068226   -2.171312   -3.027328
     68          1           0        0.189327   -2.760624   -3.355752
     69          1           0        0.754788   -1.166893   -2.666421
     70         17           0        2.205221   -2.001325   -4.370562
     71         17           0        1.907479   -3.036004   -1.725608
     72          6           0        1.870183    3.927533   -5.956601
     73          1           0        2.840462    3.818389   -6.483619
     74          1           0        1.776536    3.161237   -5.160122
     75         17           0        1.764243    5.548137   -5.240153
     76         17           0        0.534438    3.766069   -7.099013
     77          6           0       -1.523712    4.617766   -3.683947
     78          1           0       -0.543892    4.210885   -4.011826
     79          1           0       -1.524221    5.726576   -3.730152
     80         17           0       -2.815605    3.978156   -4.707903
     81         17           0       -1.856560    4.101174   -2.017271
     82          6           0        2.157915    5.966366   -1.624524
     83          1           0        2.772522    5.926084   -2.547342
     84          1           0        2.797050    5.929231   -0.718497
     85         17           0        1.188334    7.443918   -1.618659
     86         17           0        1.023997    4.600392   -1.609460
     87          6           0       -4.377425    6.875095   -1.686656
     88          1           0       -5.349265    6.933353   -2.216743
     89          1           0       -4.073250    5.816413   -1.540360
     90         17           0       -3.143133    7.730313   -2.623686
     91         17           0       -4.511218    7.679919   -0.117643
 ---------------------------------------------------------------------

 SCF Done:  E(UPM6) = -0.404741055064     A.U. after   11 cycles
 SCF Done:  E(UB3LYP) =  -309.578637054     A.U. after   11 cycles
 SCF Done:  E(UPM6) =  0.111647744621     A.U. after   14 cycles

 Alpha  occ. eigenvalues --   -1.09876  -1.00458  -0.95936  -0.91084  -0.81641
 Alpha  occ. eigenvalues --   -0.77986  -0.71836  -0.63959  -0.58889  -0.56928
 Alpha  occ. eigenvalues --   -0.54565  -0.52390  -0.51487  -0.50361  -0.48602
 Alpha  occ. eigenvalues --   -0.45095  -0.43357  -0.40796  -0.37149  -0.35896
 Alpha  occ. eigenvalues --   -0.29964
 Alpha virt. eigenvalues --    0.01857   0.02547   0.09682   0.15272   0.15574
 Alpha virt. eigenvalues --    0.17246   0.18231   0.18324   0.18981   0.19641
 Alpha virt. eigenvalues --    0.20342   0.20848   0.21476   0.22013   0.22269

  Beta  occ. eigenvalues --   -1.09749  -0.99776  -0.95832  -0.90030  -0.80943
  Beta  occ. eigenvalues --   -0.77753  -0.71137  -0.63362  -0.58239  -0.56544
  Beta  occ. eigenvalues --   -0.53569  -0.52250  -0.50274  -0.48902  -0.47630
  Beta  occ. eigenvalues --   -0.44545  -0.43135  -0.36794  -0.36271
  Beta virt. eigenvalues --   -0.03375   0.02191   0.02667   0.06993   0.10826
  Beta virt. eigenvalues --    0.15702   0.15940   0.17921   0.18487   0.18867
  Beta virt. eigenvalues --    0.19472   0.20277   0.20709   0.21322   0.21794

 Mulliken charges and spin densities:
               1          2
     1  C    0.041725  -0.375000
     2  C   -0.173572   0.442486
     3  C   -0.161205   0.456160
     4  C   -0.134413  -0.361875
     5  H    0.148069  -0.015488
     6  C   -0.170734   0.793685
     7  C   -0.140652  -0.364688
     8  H    0.150924  -0.016086
     9  C   -0.147168   0.445832
    10  H    0.144718   0.012594
    11  C   -0.305657   1.037011
    12  H    0.153326  -0.010219
    13  H    0.144432   0.012737
    14  H    0.145154  -0.015344
    15  H    0.152284  -0.021727
    16  H    0.152771  -0.020079
    17  C    0.000000   0.000000
    18  H    0.000000   0.000000
    19  H    0.000000   0.000000
    20  Cl   0.000000   0.000000
    21  Cl   0.000000   0.000000
    22  C    0.000000   0.000000
    23  H    0.000000   0.000000
    24  H    0.000000   0.000000
    25  Cl   0.000000   0.000000
    26  Cl   0.000000   0.000000
    27  C    0.000000   0.000000
    28  H    0.000000   0.000000
    29  H    0.000000   0.000000
    30  Cl   0.000000   0.000000
    31  Cl   0.000000   0.000000
    32  C    0.000000   0.000000
    33  H    0.000000   0.000000
    34  H    0.000000   0.000000
    35  Cl   0.000000   0.000000
    36  Cl   0.000000   0.000000
    37  C    0.000000   0.000000
    38  H    0.000000   0.000000
    39  H    0.000000   0.000000
    40  Cl   0.000000   0.000000
    41  Cl   0.000000   0.000000
    42  C    0.000000   0.000000
    43  H    0.000000   0.000000
    44  H    0.000000   0.000000
    45  Cl   0.000000   0.000000
    46  Cl   0.000000   0.000000
    47  C    0.000000   0.000000
    48  H    0.000000   0.000000
    49  H    0.000000   0.000000
    50  Cl   0.000000   0.000000
    51  Cl   0.000000   0.000000
    52  C    0.000000   0.000000
    53  H    0.000000   0.000000
    54  H    0.000000   0.000000
    55  Cl   0.000000   0.000000
    56  Cl   0.000000   0.000000
    57  C    0.000000   0.000000
    58  H    0.000000   0.000000
    59  H    0.000000   0.000000
    60  Cl   0.000000   0.000000
    61  Cl   0.000000   0.000000
    62  C    0.000000   0.000000
    63  H    0.000000   0.000000
    64  H    0.000000   0.000000
    65  Cl   0.000000   0.000000
    66  Cl   0.000000   0.000000
    67  C    0.000000   0.000000
    68  H    0.000000   0.000000
    69  H    0.000000   0.000000
    70  Cl   0.000000   0.000000
    71  Cl   0.000000   0.000000
    72  C    0.000000   0.000000
    73  H    0.000000   0.000000
    74  H    0.000000   0.000000
    75  Cl   0.000000   0.000000
    76  Cl   0.000000   0.000000
    77  C    0.000000   0.000000
    78  H    0.000000   0.000000
    79  H    0.000000   0.000000
    80  Cl   0.000000   0.000000
    81  Cl   0.000000   0.000000
    82  C    0.000000   0.000000
    83  H    0.000000   0.000000
    84  H    0.000000   0.000000
    85  Cl   0.000000   0.000000
    86  Cl   0.000000   0.000000
    87  C    0.000000   0.000000
    88  H    0.000000   0.000000
    89  H    0.000000   0.000000
    90  Cl   0.000000   0.000000
    91  Cl   0.000000   0.000000
 Sum of Mulliken charges =  -0.00000   2.00000

 Dipole moment (field-independent basis, Debye):
    X=             -0.0163    Y=              0.0291    Z=             -0.0869  Tot=              0.0930
 N-N= 1.845867495518D+02 E-N=-2.806055606155D+02  KE=-6.319476666428D+01
 Calling FoFJK, ICntrl=      2127 FMM=F ISym2X=0 I1Cent= 0 IOpClX= 1 NMat=1 NMatS=1 NMatT=0.
 Cartesian Forces:  Max     0.022406104 RMS     0.003141481
 SvSCFP is copying densities from files   528 and   530 to   603.
 ONIOM: saving gridpoint  1
 ONIOM: restoring gridpoint  3
 ONIOM: calculating energy.
 ONIOM: gridpoint  1 method:  low   system:  model energy:     0.111647744621
 ONIOM: gridpoint  2 method:  high  system:  model energy:  -309.578637054397
 ONIOM: gridpoint  3 method:  low   system:  real  energy:    -0.404741055064

 Normal termination of Gaussian 16 at Fri Jul 12 22:54:53 2024.
