 Gaussian 16, Revision C.01,
 Gaussian 16:  ES64L-G16RevC.01  3-Jul-2019

 ----------------------------------------------------------------------
 # scf=(xqc,maxcycle=64) force guess=read oniom(td/b3lyp/em=gd3bj/6-31g
 (d):pm6) nosymm
 ----------------------------------------------------------------------

 ----------
 Title Card
 ----------
 Symbolic Z-matrix:
 Charge =  0 Multiplicity = 1 for low   level calculation on real  system.
 Charge =  0 Multiplicity = 1 for high  level calculation on model system.
 Charge =  0 Multiplicity = 1 for low   level calculation on model system.

                          Input orientation:
 ---------------------------------------------------------------------
 Center     Atomic      Atomic             Coordinates (Angstroms)
 Number     Number       Type             X           Y           Z
 ---------------------------------------------------------------------
      1          6           0        0.550201   -0.173101   -0.177241
      2          6           0       -0.088856   -1.293721    0.424193
      3          6           0       -0.273744    0.874382   -0.653785
      4          6           0       -1.462361   -1.354058    0.524207
      5          1           0        0.530510   -2.107192    0.793414
      6          6           0        1.969982   -0.138098   -0.313349
      7          6           0       -1.655668    0.809752   -0.516867
      8          1           0        0.174968    1.736636   -1.138480
      9          6           0       -2.254911   -0.308856    0.058375
     10          1           0       -1.925068   -2.237768    0.971299
     11          6           0        2.687516    0.904662   -0.998660
     12          1           0        2.525461   -0.987890    0.091024
     13          1           0       -2.263373    1.636643   -0.876267
     14          1           0       -3.345788   -0.367308    0.129902
     15          1           0        3.636143    1.285204   -0.633789
     16          1           0        2.356190    1.289942   -1.961229
     17          6           0        4.980220    0.556316    1.990409
     18          1           0        5.264551    1.142882    1.091527
     19          1           0        3.983848    0.864918    2.370190
     20         17           0        6.193273    0.772847    3.250023
     21         17           0        4.935647   -1.170603    1.571148
     22          6           0        5.721054   -1.064349   -1.562352
     23          1           0        4.645044   -1.121429   -1.290780
     24          1           0        6.338419   -1.660670   -0.859395
     25         17           0        6.257765    0.625209   -1.524116
     26         17           0        5.952405   -1.654437   -3.211924
     27          6           0        2.112172    3.182231    1.546594
     28          1           0        1.846665    2.141445    1.257066
     29          1           0        1.361818    3.900719    1.151411
     30         17           0        3.718810    3.588686    0.918743
     31         17           0        2.200068    3.314845    3.310347
     32          6           0       -2.250251    0.807610    3.496370
     33          1           0       -1.892638   -0.242707    3.537192
     34          1           0       -2.209521    1.285685    4.498080
     35         17           0       -3.915331    0.838143    2.889721
     36         17           0       -1.253606    1.723000    2.352377
     37          6           0       -1.041243    4.549288    4.564687
     38          1           0       -0.370256    5.423043    4.682931
     39          1           0       -0.879727    4.063123    3.579088
     40         17           0       -2.724456    5.054246    4.717631
     41         17           0       -0.717086    3.379770    5.863257
     42          6           0        4.433895    1.071964   -4.438807
     43          1           0        3.885017    0.252635   -3.926571
     44          1           0        5.530197    0.907593   -4.370788
     45         17           0        4.026108    2.630961   -3.691748
     46         17           0        3.933415    1.162814   -6.131549
     47          6           0       -5.427861    1.956580   -0.385351
     48          1           0       -6.321573    1.373952   -0.084391
     49          1           0       -4.646912    1.923539    0.404014
     50         17           0       -5.894673    3.637391   -0.681809
     51         17           0       -4.786716    1.294144   -1.895192
     52          6           0       -1.594882    0.988150   -4.096008
     53          1           0       -1.929975    1.301002   -5.106358
     54          1           0       -2.145003    1.536247   -3.299696
     55         17           0        0.145316    1.305303   -3.931573
     56         17           0       -1.837371   -0.752130   -3.899635
     57          6           0       -1.420320    5.897419    0.752362
     58          1           0       -1.056848    6.126535   -0.273200
     59          1           0       -2.296734    6.524920    1.015987
     60         17           0       -0.110094    6.192860    1.910540
     61         17           0       -1.856156    4.182883    0.881930
     62          6           0        1.107439    0.335473    4.949280
     63          1           0        0.730211    1.338471    4.655387
     64          1           0        1.955419    0.422251    5.657891
     65         17           0        1.626616   -0.548756    3.508728
     66         17           0       -0.200150   -0.586373    5.708509
     67          6           0        1.066318   -2.169718   -3.029214
     68          1           0        0.193003   -2.767502   -3.357546
     69          1           0        0.744765   -1.162240   -2.683937
     70         17           0        2.214512   -2.012928   -4.364475
     71         17           0        1.897589   -3.016311   -1.710890
     72          6           0        1.872256    3.925044   -5.942736
     73          1           0        2.842805    3.814717   -6.468588
     74          1           0        1.776354    3.156321   -5.149029
     75         17           0        1.770813    5.544068   -5.222727
     76         17           0        0.537713    3.771587   -7.087312
     77          6           0       -1.511868    4.640382   -3.680010
     78          1           0       -0.526761    4.253476   -4.015381
     79          1           0       -1.539297    5.746937   -3.755976
     80         17           0       -2.806087    3.943972   -4.664547
     81         17           0       -1.812198    4.147483   -2.000572
     82          6           0        2.148999    5.979636   -1.625123
     83          1           0        2.764718    5.937599   -2.546690
     84          1           0        2.783954    5.941527   -0.716738
     85         17           0        1.183554    7.460327   -1.624045
     86         17           0        1.014273    4.617120   -1.611069
     87          6           0       -4.376997    6.886717   -1.685932
     88          1           0       -5.349461    6.944478   -2.215153
     89          1           0       -4.083482    5.827967   -1.518217
     90         17           0       -3.137790    7.712109   -2.643037
     91         17           0       -4.497957    7.726271   -0.134294
 ---------------------------------------------------------------------

 SCF Done:  E(UPM6) = -0.403534898780     A.U. after   15 cycles
 SCF Done:  E(UB3LYP) =  -309.636004510     A.U. after   10 cycles

 Excitation energies and oscillator strengths:

 Excited state symmetry could not be determined.
 Excited State   1:  3.000-?Sym    0.8564 eV 1447.67 nm  f=0.0000  <S**2>=2.000
     26A -> 29A        0.14604
     26A -> 31A        0.12593
     28A -> 29A       -0.78588
     28A -> 31A       -0.12713
     26B -> 29B       -0.14604
     26B -> 31B       -0.12593
     28B -> 29B        0.78588
     28B -> 31B        0.12713
     28A <- 29A       -0.39214
     28B <- 29B        0.39214
 This state for optimization and/or second-order correction.
 Total Energy, E(TD-HF/TD-DFT) =  -309.604530909
 Copying the excited state density for this state as the 1-particle RhoCI density.

 Excited state symmetry could not be determined.
 Excited State   2:  3.000-?Sym    3.7691 eV  328.95 nm  f=0.0000  <S**2>=2.000
     26A -> 29A        0.46908
     27A -> 29A       -0.24890
     27A -> 30A        0.30163
     28A -> 31A       -0.32260
     26B -> 29B       -0.46908
     27B -> 29B        0.24890
     27B -> 30B       -0.30163
     28B -> 31B        0.32260

 Excited state symmetry could not be determined.
 Excited State   3:  3.000-?Sym    3.8462 eV  322.36 nm  f=0.0000  <S**2>=2.000
     26A -> 29A       -0.18419
     27A -> 29A       -0.56421
     27A -> 30A       -0.10618
     28A -> 30A       -0.32998
     28A -> 31A        0.11720
     26B -> 29B        0.18419
     27B -> 29B        0.56421
     27B -> 30B        0.10618
     28B -> 30B        0.32998
     28B -> 31B       -0.11720

 SCF Done:  E(UPM6) =  0.863660296555E-01 A.U. after   18 cycles

 Alpha  occ. eigenvalues --   -1.09842  -1.00202  -0.95795  -0.90612  -0.81135
 Alpha  occ. eigenvalues --   -0.77951  -0.71345  -0.63730  -0.58610  -0.56647
 Alpha  occ. eigenvalues --   -0.54042  -0.52257  -0.50766  -0.49831  -0.48190
 Alpha  occ. eigenvalues --   -0.44706  -0.43243  -0.39621  -0.36728  -0.32079
 Alpha virt. eigenvalues --    0.00677   0.01761   0.04467   0.10035   0.15559
 Alpha virt. eigenvalues --    0.15667   0.17742   0.18354   0.18606   0.19233
 Alpha virt. eigenvalues --    0.19817   0.20408   0.21132   0.21536   0.22339

  Beta  occ. eigenvalues --   -1.09781  -1.00124  -0.95744  -0.90755  -0.81173
  Beta  occ. eigenvalues --   -0.77953  -0.71435  -0.63559  -0.58523  -0.56707
  Beta  occ. eigenvalues --   -0.54179  -0.52214  -0.50782  -0.49618  -0.48048
  Beta  occ. eigenvalues --   -0.44589  -0.43249  -0.38782  -0.36067  -0.34153
  Beta virt. eigenvalues --   -0.01163   0.02380   0.05248   0.10562   0.15520
  Beta virt. eigenvalues --    0.15813   0.17715   0.18450   0.18660   0.19248
  Beta virt. eigenvalues --    0.19864   0.20598   0.21077   0.21488   0.22286

 Mulliken charges and spin densities:
               1          2
     1  C    0.029680  -0.391063
     2  C   -0.170296   0.384329
     3  C   -0.158600   0.391066
     4  C   -0.137041  -0.315735
     5  H    0.147234  -0.013363
     6  C   -0.149924   0.709032
     7  C   -0.140765  -0.324466
     8  H    0.150821  -0.013401
     9  C   -0.147600   0.372854
    10  H    0.145305   0.011201
    11  C   -0.309654  -0.845749
    12  H    0.149088  -0.034408
    13  H    0.144537   0.011292
    14  H    0.146110  -0.013098
    15  H    0.149477   0.034619
    16  H    0.151629   0.036888
    17  C    0.000000   0.000000
    18  H    0.000000   0.000000
    19  H    0.000000   0.000000
    20  Cl   0.000000   0.000000
    21  Cl   0.000000   0.000000
    22  C    0.000000   0.000000
    23  H    0.000000   0.000000
    24  H    0.000000   0.000000
    25  Cl   0.000000   0.000000
    26  Cl   0.000000   0.000000
    27  C    0.000000   0.000000
    28  H    0.000000   0.000000
    29  H    0.000000   0.000000
    30  Cl   0.000000   0.000000
    31  Cl   0.000000   0.000000
    32  C    0.000000   0.000000
    33  H    0.000000   0.000000
    34  H    0.000000   0.000000
    35  Cl   0.000000   0.000000
    36  Cl   0.000000   0.000000
    37  C    0.000000   0.000000
    38  H    0.000000   0.000000
    39  H    0.000000   0.000000
    40  Cl   0.000000   0.000000
    41  Cl   0.000000   0.000000
    42  C    0.000000   0.000000
    43  H    0.000000   0.000000
    44  H    0.000000   0.000000
    45  Cl   0.000000   0.000000
    46  Cl   0.000000   0.000000
    47  C    0.000000   0.000000
    48  H    0.000000   0.000000
    49  H    0.000000   0.000000
    50  Cl   0.000000   0.000000
    51  Cl   0.000000   0.000000
    52  C    0.000000   0.000000
    53  H    0.000000   0.000000
    54  H    0.000000   0.000000
    55  Cl   0.000000   0.000000
    56  Cl   0.000000   0.000000
    57  C    0.000000   0.000000
    58  H    0.000000   0.000000
    59  H    0.000000   0.000000
    60  Cl   0.000000   0.000000
    61  Cl   0.000000   0.000000
    62  C    0.000000   0.000000
    63  H    0.000000   0.000000
    64  H    0.000000   0.000000
    65  Cl   0.000000   0.000000
    66  Cl   0.000000   0.000000
    67  C    0.000000   0.000000
    68  H    0.000000   0.000000
    69  H    0.000000   0.000000
    70  Cl   0.000000   0.000000
    71  Cl   0.000000   0.000000
    72  C    0.000000   0.000000
    73  H    0.000000   0.000000
    74  H    0.000000   0.000000
    75  Cl   0.000000   0.000000
    76  Cl   0.000000   0.000000
    77  C    0.000000   0.000000
    78  H    0.000000   0.000000
    79  H    0.000000   0.000000
    80  Cl   0.000000   0.000000
    81  Cl   0.000000   0.000000
    82  C    0.000000   0.000000
    83  H    0.000000   0.000000
    84  H    0.000000   0.000000
    85  Cl   0.000000   0.000000
    86  Cl   0.000000   0.000000
    87  C    0.000000   0.000000
    88  H    0.000000   0.000000
    89  H    0.000000   0.000000
    90  Cl   0.000000   0.000000
    91  Cl   0.000000   0.000000
 Sum of Mulliken charges =  -0.00000   0.00000

 Dipole moment (field-independent basis, Debye):
    X=              0.0336    Y=             -0.0892    Z=             -0.1655  Tot=              0.1909
 N-N= 1.845133911388D+02 E-N=-2.804805802015D+02  KE=-6.322578132054D+01
 Calling FoFJK, ICntrl=      2127 FMM=F ISym2X=0 I1Cent= 0 IOpClX= 1 NMat=1 NMatS=1 NMatT=0.
 Cartesian Forces:  Max     0.033814302 RMS     0.004546091
 SvSCFP is copying densities from files   528 and   530 to   603.
 ONIOM: saving gridpoint  1
 ONIOM: restoring gridpoint  3
 ONIOM: calculating energy.
 ONIOM: gridpoint  1 method:  low   system:  model energy:     0.086366029655
 ONIOM: gridpoint  2 method:  high  system:  model energy:  -309.604530908960
 ONIOM: gridpoint  3 method:  low   system:  real  energy:    -0.403534898780

 Normal termination of Gaussian 16 at Fri Jul 12 22:43:04 2024.
