 Gaussian 16, Revision C.01,
 Gaussian 16:  ES64L-G16RevC.01  3-Jul-2019

 ----------------------------------------------------------------------
 # scf=(xqc,maxcycle=64) force guess=read oniom(b3lyp/em=gd3bj/6-31g(d)
 :pm6) nosymm
 ----------------------------------------------------------------------

 ----------
 Title Card
 ----------
 Symbolic Z-matrix:
 Charge =  0 Multiplicity = 1 for low   level calculation on real  system.
 Charge =  0 Multiplicity = 3 for high  level calculation on model system.
 Charge =  0 Multiplicity = 3 for low   level calculation on model system.

                          Input orientation:
 ---------------------------------------------------------------------
 Center     Atomic      Atomic             Coordinates (Angstroms)
 Number     Number       Type             X           Y           Z
 ---------------------------------------------------------------------
      1          6           0        0.550201   -0.173101   -0.177241
      2          6           0       -0.088856   -1.293721    0.424193
      3          6           0       -0.273744    0.874382   -0.653785
      4          6           0       -1.462361   -1.354058    0.524207
      5          1           0        0.530510   -2.107192    0.793414
      6          6           0        1.969982   -0.138098   -0.313349
      7          6           0       -1.655668    0.809752   -0.516867
      8          1           0        0.174968    1.736636   -1.138480
      9          6           0       -2.254911   -0.308856    0.058375
     10          1           0       -1.925068   -2.237768    0.971299
     11          6           0        2.687516    0.904662   -0.998660
     12          1           0        2.525461   -0.987890    0.091024
     13          1           0       -2.263373    1.636643   -0.876267
     14          1           0       -3.345788   -0.367308    0.129902
     15          1           0        3.636143    1.285204   -0.633789
     16          1           0        2.356190    1.289942   -1.961229
     17          6           0        4.980220    0.556316    1.990409
     18          1           0        5.264551    1.142882    1.091527
     19          1           0        3.983848    0.864918    2.370190
     20         17           0        6.193273    0.772847    3.250023
     21         17           0        4.935647   -1.170603    1.571148
     22          6           0        5.721054   -1.064349   -1.562352
     23          1           0        4.645044   -1.121429   -1.290780
     24          1           0        6.338419   -1.660670   -0.859395
     25         17           0        6.257765    0.625209   -1.524116
     26         17           0        5.952405   -1.654437   -3.211924
     27          6           0        2.112172    3.182231    1.546594
     28          1           0        1.846665    2.141445    1.257066
     29          1           0        1.361818    3.900719    1.151411
     30         17           0        3.718810    3.588686    0.918743
     31         17           0        2.200068    3.314845    3.310347
     32          6           0       -2.250251    0.807610    3.496370
     33          1           0       -1.892638   -0.242707    3.537192
     34          1           0       -2.209521    1.285685    4.498080
     35         17           0       -3.915331    0.838143    2.889721
     36         17           0       -1.253606    1.723000    2.352377
     37          6           0       -1.041243    4.549288    4.564687
     38          1           0       -0.370256    5.423043    4.682931
     39          1           0       -0.879727    4.063123    3.579088
     40         17           0       -2.724456    5.054246    4.717631
     41         17           0       -0.717086    3.379770    5.863257
     42          6           0        4.433895    1.071964   -4.438807
     43          1           0        3.885017    0.252635   -3.926571
     44          1           0        5.530197    0.907593   -4.370788
     45         17           0        4.026108    2.630961   -3.691748
     46         17           0        3.933415    1.162814   -6.131549
     47          6           0       -5.427861    1.956580   -0.385351
     48          1           0       -6.321573    1.373952   -0.084391
     49          1           0       -4.646912    1.923539    0.404014
     50         17           0       -5.894673    3.637391   -0.681809
     51         17           0       -4.786716    1.294144   -1.895192
     52          6           0       -1.594882    0.988150   -4.096008
     53          1           0       -1.929975    1.301002   -5.106358
     54          1           0       -2.145003    1.536247   -3.299696
     55         17           0        0.145316    1.305303   -3.931573
     56         17           0       -1.837371   -0.752130   -3.899635
     57          6           0       -1.420320    5.897419    0.752362
     58          1           0       -1.056848    6.126535   -0.273200
     59          1           0       -2.296734    6.524920    1.015987
     60         17           0       -0.110094    6.192860    1.910540
     61         17           0       -1.856156    4.182883    0.881930
     62          6           0        1.107439    0.335473    4.949280
     63          1           0        0.730211    1.338471    4.655387
     64          1           0        1.955419    0.422251    5.657891
     65         17           0        1.626616   -0.548756    3.508728
     66         17           0       -0.200150   -0.586373    5.708509
     67          6           0        1.066318   -2.169718   -3.029214
     68          1           0        0.193003   -2.767502   -3.357546
     69          1           0        0.744765   -1.162240   -2.683937
     70         17           0        2.214512   -2.012928   -4.364475
     71         17           0        1.897589   -3.016311   -1.710890
     72          6           0        1.872256    3.925044   -5.942736
     73          1           0        2.842805    3.814717   -6.468588
     74          1           0        1.776354    3.156321   -5.149029
     75         17           0        1.770813    5.544068   -5.222727
     76         17           0        0.537713    3.771587   -7.087312
     77          6           0       -1.511868    4.640382   -3.680010
     78          1           0       -0.526761    4.253476   -4.015381
     79          1           0       -1.539297    5.746937   -3.755976
     80         17           0       -2.806087    3.943972   -4.664547
     81         17           0       -1.812198    4.147483   -2.000572
     82          6           0        2.148999    5.979636   -1.625123
     83          1           0        2.764718    5.937599   -2.546690
     84          1           0        2.783954    5.941527   -0.716738
     85         17           0        1.183554    7.460327   -1.624045
     86         17           0        1.014273    4.617120   -1.611069
     87          6           0       -4.376997    6.886717   -1.685932
     88          1           0       -5.349461    6.944478   -2.215153
     89          1           0       -4.083482    5.827967   -1.518217
     90         17           0       -3.137790    7.712109   -2.643037
     91         17           0       -4.497957    7.726271   -0.134294
 ---------------------------------------------------------------------

 SCF Done:  E(UPM6) = -0.403534898780     A.U. after   15 cycles
 SCF Done:  E(UB3LYP) =  -309.578720040     A.U. after   13 cycles
 SCF Done:  E(UPM6) =  0.111755291437     A.U. after   16 cycles

 Alpha  occ. eigenvalues --   -1.09894  -1.00388  -0.95843  -0.91061  -0.81539
 Alpha  occ. eigenvalues --   -0.78068  -0.71713  -0.63915  -0.58866  -0.56858
 Alpha  occ. eigenvalues --   -0.54585  -0.52321  -0.51325  -0.50417  -0.48618
 Alpha  occ. eigenvalues --   -0.44962  -0.43363  -0.40903  -0.37090  -0.35921
 Alpha  occ. eigenvalues --   -0.29962
 Alpha virt. eigenvalues --    0.01817   0.02653   0.09714   0.15200   0.15612
 Alpha virt. eigenvalues --    0.17230   0.18283   0.18373   0.18962   0.19602
 Alpha virt. eigenvalues --    0.20335   0.20880   0.21462   0.22078   0.22278

  Beta  occ. eigenvalues --   -1.09768  -0.99719  -0.95738  -0.89998  -0.80831
  Beta  occ. eigenvalues --   -0.77846  -0.71021  -0.63315  -0.58222  -0.56482
  Beta  occ. eigenvalues --   -0.53622  -0.52190  -0.50095  -0.48969  -0.47646
  Beta  occ. eigenvalues --   -0.44428  -0.43134  -0.36893  -0.36187
  Beta virt. eigenvalues --   -0.03375   0.02239   0.02677   0.07053   0.10870
  Beta virt. eigenvalues --    0.15693   0.15951   0.17945   0.18549   0.18897
  Beta virt. eigenvalues --    0.19416   0.20219   0.20660   0.21319   0.21794

 Mulliken charges and spin densities:
               1          2
     1  C    0.041898  -0.375347
     2  C   -0.172118   0.447184
     3  C   -0.160907   0.460450
     4  C   -0.136190  -0.357597
     5  H    0.147851  -0.015551
     6  C   -0.172090   0.792530
     7  C   -0.140048  -0.368353
     8  H    0.150808  -0.016177
     9  C   -0.147714   0.437956
    10  H    0.145423   0.012642
    11  C   -0.304066   1.038590
    12  H    0.152697  -0.010368
    13  H    0.144622   0.012809
    14  H    0.146288  -0.015376
    15  H    0.151227  -0.022745
    16  H    0.152320  -0.020647
    17  C    0.000000   0.000000
    18  H    0.000000   0.000000
    19  H    0.000000   0.000000
    20  Cl   0.000000   0.000000
    21  Cl   0.000000   0.000000
    22  C    0.000000   0.000000
    23  H    0.000000   0.000000
    24  H    0.000000   0.000000
    25  Cl   0.000000   0.000000
    26  Cl   0.000000   0.000000
    27  C    0.000000   0.000000
    28  H    0.000000   0.000000
    29  H    0.000000   0.000000
    30  Cl   0.000000   0.000000
    31  Cl   0.000000   0.000000
    32  C    0.000000   0.000000
    33  H    0.000000   0.000000
    34  H    0.000000   0.000000
    35  Cl   0.000000   0.000000
    36  Cl   0.000000   0.000000
    37  C    0.000000   0.000000
    38  H    0.000000   0.000000
    39  H    0.000000   0.000000
    40  Cl   0.000000   0.000000
    41  Cl   0.000000   0.000000
    42  C    0.000000   0.000000
    43  H    0.000000   0.000000
    44  H    0.000000   0.000000
    45  Cl   0.000000   0.000000
    46  Cl   0.000000   0.000000
    47  C    0.000000   0.000000
    48  H    0.000000   0.000000
    49  H    0.000000   0.000000
    50  Cl   0.000000   0.000000
    51  Cl   0.000000   0.000000
    52  C    0.000000   0.000000
    53  H    0.000000   0.000000
    54  H    0.000000   0.000000
    55  Cl   0.000000   0.000000
    56  Cl   0.000000   0.000000
    57  C    0.000000   0.000000
    58  H    0.000000   0.000000
    59  H    0.000000   0.000000
    60  Cl   0.000000   0.000000
    61  Cl   0.000000   0.000000
    62  C    0.000000   0.000000
    63  H    0.000000   0.000000
    64  H    0.000000   0.000000
    65  Cl   0.000000   0.000000
    66  Cl   0.000000   0.000000
    67  C    0.000000   0.000000
    68  H    0.000000   0.000000
    69  H    0.000000   0.000000
    70  Cl   0.000000   0.000000
    71  Cl   0.000000   0.000000
    72  C    0.000000   0.000000
    73  H    0.000000   0.000000
    74  H    0.000000   0.000000
    75  Cl   0.000000   0.000000
    76  Cl   0.000000   0.000000
    77  C    0.000000   0.000000
    78  H    0.000000   0.000000
    79  H    0.000000   0.000000
    80  Cl   0.000000   0.000000
    81  Cl   0.000000   0.000000
    82  C    0.000000   0.000000
    83  H    0.000000   0.000000
    84  H    0.000000   0.000000
    85  Cl   0.000000   0.000000
    86  Cl   0.000000   0.000000
    87  C    0.000000   0.000000
    88  H    0.000000   0.000000
    89  H    0.000000   0.000000
    90  Cl   0.000000   0.000000
    91  Cl   0.000000   0.000000
 Sum of Mulliken charges =   0.00000   2.00000

 Dipole moment (field-independent basis, Debye):
    X=              0.0125    Y=             -0.0501    Z=             -0.1392  Tot=              0.1484
 N-N= 1.845133911388D+02 E-N=-2.804757453789D+02  KE=-6.319035549344D+01
 Calling FoFJK, ICntrl=      2127 FMM=F ISym2X=0 I1Cent= 0 IOpClX= 1 NMat=1 NMatS=1 NMatT=0.
 Cartesian Forces:  Max     0.021370466 RMS     0.003084460
 SvSCFP is copying densities from files   528 and   530 to   603.
 ONIOM: saving gridpoint  1
 ONIOM: restoring gridpoint  3
 ONIOM: calculating energy.
 ONIOM: gridpoint  1 method:  low   system:  model energy:     0.111755291437
 ONIOM: gridpoint  2 method:  high  system:  model energy:  -309.578720040354
 ONIOM: gridpoint  3 method:  low   system:  real  energy:    -0.403534898780

 Normal termination of Gaussian 16 at Fri Jul 12 22:42:16 2024.
