 Gaussian 16, Revision C.01,
 Gaussian 16:  ES64L-G16RevC.01  3-Jul-2019

 ----------------------------------------------------------------------
 # scf=(xqc,maxcycle=64) force guess=read oniom(td/b3lyp/em=gd3bj/6-31g
 (d):pm6) nosymm
 ----------------------------------------------------------------------

 ----------
 Title Card
 ----------
 Symbolic Z-matrix:
 Charge =  0 Multiplicity = 1 for low   level calculation on real  system.
 Charge =  0 Multiplicity = 1 for high  level calculation on model system.
 Charge =  0 Multiplicity = 1 for low   level calculation on model system.

                          Input orientation:
 ---------------------------------------------------------------------
 Center     Atomic      Atomic             Coordinates (Angstroms)
 Number     Number       Type             X           Y           Z
 ---------------------------------------------------------------------
      1          6           0        0.548559   -0.170713   -0.173173
      2          6           0       -0.089944   -1.291300    0.433883
      3          6           0       -0.275464    0.871839   -0.650224
      4          6           0       -1.466953   -1.353782    0.526560
      5          1           0        0.523522   -2.107925    0.802912
      6          6           0        1.970681   -0.129111   -0.318154
      7          6           0       -1.659576    0.806245   -0.515224
      8          1           0        0.167794    1.726134   -1.151953
      9          6           0       -2.256454   -0.312241    0.061676
     10          1           0       -1.933371   -2.247479    0.956019
     11          6           0        2.685508    0.912346   -0.992022
     12          1           0        2.518155   -0.988161    0.077193
     13          1           0       -2.261221    1.628109   -0.889367
     14          1           0       -3.349876   -0.370037    0.127139
     15          1           0        3.645537    1.282892   -0.642490
     16          1           0        2.383295    1.292297   -1.967577
     17          6           0        4.982515    0.556217    1.989087
     18          1           0        5.267191    1.141110    1.089373
     19          1           0        3.986585    0.866372    2.368605
     20         17           0        6.196207    0.773435    3.248082
     21         17           0        4.935612   -1.171177    1.571676
     22          6           0        5.717679   -1.062448   -1.563076
     23          1           0        4.642694   -1.124911   -1.289070
     24          1           0        6.338757   -1.654882   -0.860295
     25         17           0        6.247394    0.629341   -1.527984
     26         17           0        5.948993   -1.653615   -3.212344
     27          6           0        2.113784    3.181337    1.548455
     28          1           0        1.851654    2.139891    1.257221
     29          1           0        1.362335    3.896336    1.149115
     30         17           0        3.721741    3.593531    0.926994
     31         17           0        2.195342    3.315322    3.312611
     32          6           0       -2.246012    0.804475    3.504874
     33          1           0       -1.895581   -0.248310    3.548568
     34          1           0       -2.213706    1.283380    4.506648
     35         17           0       -3.904951    0.843197    2.880941
     36         17           0       -1.234191    1.715908    2.370859
     37          6           0       -1.037839    4.545020    4.558166
     38          1           0       -0.365825    5.418273    4.673480
     39          1           0       -0.879748    4.058899    3.572016
     40         17           0       -2.720444    5.050453    4.717081
     41         17           0       -0.710399    3.375932    5.856525
     42          6           0        4.433378    1.065459   -4.435235
     43          1           0        3.888609    0.241354   -3.926215
     44          1           0        5.530327    0.905933   -4.368369
     45         17           0        4.020347    2.620909   -3.683529
     46         17           0        3.932230    1.160152   -6.127620
     47          6           0       -5.429435    1.951455   -0.383548
     48          1           0       -6.322260    1.362184   -0.092335
     49          1           0       -4.655089    1.921248    0.412175
     50         17           0       -5.900836    3.630721   -0.681241
     51         17           0       -4.768926    1.296091   -1.888568
     52          6           0       -1.596512    0.991238   -4.099987
     53          1           0       -1.934749    1.302835   -5.109673
     54          1           0       -2.144085    1.540170   -3.302523
     55         17           0        0.144296    1.307535   -3.940424
     56         17           0       -1.838876   -0.749083   -3.900286
     57          6           0       -1.425310    5.899374    0.748372
     58          1           0       -1.062129    6.129289   -0.277364
     59          1           0       -2.298746    6.530370    1.013584
     60         17           0       -0.113660    6.189407    1.906503
     61         17           0       -1.866982    4.185772    0.876019
     62          6           0        1.105956    0.337521    4.952234
     63          1           0        0.728882    1.342083    4.663467
     64          1           0        1.954916    0.420359    5.659910
     65         17           0        1.622663   -0.539317    3.506279
     66         17           0       -0.200503   -0.587810    5.709667
     67          6           0        1.065910   -2.169985   -3.029691
     68          1           0        0.194994   -2.770303   -3.359654
     69          1           0        0.743805   -1.161462   -2.688235
     70         17           0        2.216086   -2.015418   -4.363526
     71         17           0        1.894053   -3.008677   -1.704213
     72          6           0        1.873007    3.924093   -5.938847
     73          1           0        2.844057    3.813450   -6.464012
     74          1           0        1.775834    3.154737   -5.145782
     75         17           0        1.771731    5.542420   -5.216424
     76         17           0        0.538209    3.773006   -7.083765
     77          6           0       -1.504411    4.648262   -3.678422
     78          1           0       -0.516844    4.271580   -4.019813
     79          1           0       -1.540108    5.754007   -3.766306
     80         17           0       -2.804675    3.928562   -4.640026
     81         17           0       -1.798724    4.164119   -1.995150
     82          6           0        2.144051    5.983629   -1.626303
     83          1           0        2.758360    5.939473   -2.548820
     84          1           0        2.774373    5.941892   -0.714939
     85         17           0        1.184999    7.468712   -1.625792
     86         17           0        1.010989    4.620551   -1.612477
     87          6           0       -4.376832    6.890006   -1.685766
     88          1           0       -5.349311    6.947559   -2.214726
     89          1           0       -4.086986    5.831358   -1.511780
     90         17           0       -3.135260    7.705222   -2.648760
     91         17           0       -4.493852    7.739664   -0.139190
 ---------------------------------------------------------------------

 SCF Done:  E(UPM6) = -0.403134122675     A.U. after   16 cycles
 SCF Done:  E(UB3LYP) =  -309.635442993     A.U. after   10 cycles

 Excitation energies and oscillator strengths:

 Excited state symmetry could not be determined.
 Excited State   1:  3.000-?Sym    0.8708 eV 1423.75 nm  f=0.0000  <S**2>=2.000
     26A -> 29A       -0.14610
     26A -> 31A       -0.12357
     28A -> 29A        0.78275
     28A -> 31A        0.12538
     26B -> 29B        0.14610
     26B -> 31B        0.12357
     28B -> 29B       -0.78275
     28B -> 31B       -0.12538
     28A <- 29A        0.38592
     28B <- 29B       -0.38592
 This state for optimization and/or second-order correction.
 Total Energy, E(TD-HF/TD-DFT) =  -309.603440580
 Copying the excited state density for this state as the 1-particle RhoCI density.

 Excited state symmetry could not be determined.
 Excited State   2:  3.000-?Sym    3.7784 eV  328.14 nm  f=0.0000  <S**2>=2.000
     26A -> 29A        0.49074
     27A -> 29A       -0.12740
     27A -> 30A        0.33182
     28A -> 29A        0.10059
     28A -> 31A       -0.33473
     26B -> 29B       -0.49074
     27B -> 29B        0.12740
     27B -> 30B       -0.33182
     28B -> 29B       -0.10059
     28B -> 31B        0.33473

 Excited state symmetry could not be determined.
 Excited State   3:  3.000-?Sym    3.8299 eV  323.73 nm  f=0.0000  <S**2>=2.000
     27A -> 29A       -0.60553
     28A -> 30A       -0.32956
     27B -> 29B        0.60553
     28B -> 30B        0.32956

 SCF Done:  E(UPM6) =  0.866828046041E-01 A.U. after   19 cycles

 Alpha  occ. eigenvalues --   -1.09839  -1.00239  -0.95726  -0.90758  -0.81079
 Alpha  occ. eigenvalues --   -0.78030  -0.71371  -0.63700  -0.58534  -0.56723
 Alpha  occ. eigenvalues --   -0.53970  -0.52199  -0.50808  -0.49947  -0.48133
 Alpha  occ. eigenvalues --   -0.44609  -0.43296  -0.39575  -0.36647  -0.32094
 Alpha virt. eigenvalues --    0.00671   0.01727   0.04471   0.10049   0.15551
 Alpha virt. eigenvalues --    0.15677   0.17801   0.18351   0.18668   0.19257
 Alpha virt. eigenvalues --    0.19862   0.20430   0.21085   0.21532   0.22358

  Beta  occ. eigenvalues --   -1.09781  -1.00164  -0.95675  -0.90898  -0.81117
  Beta  occ. eigenvalues --   -0.78026  -0.71463  -0.63533  -0.58453  -0.56781
  Beta  occ. eigenvalues --   -0.54090  -0.52158  -0.50838  -0.49726  -0.48000
  Beta  occ. eigenvalues --   -0.44501  -0.43302  -0.38759  -0.35993  -0.34148
  Beta virt. eigenvalues --   -0.01127   0.02340   0.05245   0.10564   0.15580
  Beta virt. eigenvalues --    0.15760   0.17781   0.18448   0.18717   0.19273
  Beta virt. eigenvalues --    0.19893   0.20613   0.21019   0.21480   0.22281

 Mulliken charges and spin densities:
               1          2
     1  C    0.029542  -0.387040
     2  C   -0.169185   0.384335
     3  C   -0.159201   0.385703
     4  C   -0.137646  -0.311985
     5  H    0.146842  -0.013294
     6  C   -0.147403   0.704714
     7  C   -0.140402  -0.323263
     8  H    0.150909  -0.013225
     9  C   -0.148176   0.364311
    10  H    0.145688   0.011132
    11  C   -0.311639  -0.836832
    12  H    0.148746  -0.035133
    13  H    0.144172   0.011185
    14  H    0.146434  -0.012886
    15  H    0.149124   0.034572
    16  H    0.152195   0.037706
    17  C    0.000000   0.000000
    18  H    0.000000   0.000000
    19  H    0.000000   0.000000
    20  Cl   0.000000   0.000000
    21  Cl   0.000000   0.000000
    22  C    0.000000   0.000000
    23  H    0.000000   0.000000
    24  H    0.000000   0.000000
    25  Cl   0.000000   0.000000
    26  Cl   0.000000   0.000000
    27  C    0.000000   0.000000
    28  H    0.000000   0.000000
    29  H    0.000000   0.000000
    30  Cl   0.000000   0.000000
    31  Cl   0.000000   0.000000
    32  C    0.000000   0.000000
    33  H    0.000000   0.000000
    34  H    0.000000   0.000000
    35  Cl   0.000000   0.000000
    36  Cl   0.000000   0.000000
    37  C    0.000000   0.000000
    38  H    0.000000   0.000000
    39  H    0.000000   0.000000
    40  Cl   0.000000   0.000000
    41  Cl   0.000000   0.000000
    42  C    0.000000   0.000000
    43  H    0.000000   0.000000
    44  H    0.000000   0.000000
    45  Cl   0.000000   0.000000
    46  Cl   0.000000   0.000000
    47  C    0.000000   0.000000
    48  H    0.000000   0.000000
    49  H    0.000000   0.000000
    50  Cl   0.000000   0.000000
    51  Cl   0.000000   0.000000
    52  C    0.000000   0.000000
    53  H    0.000000   0.000000
    54  H    0.000000   0.000000
    55  Cl   0.000000   0.000000
    56  Cl   0.000000   0.000000
    57  C    0.000000   0.000000
    58  H    0.000000   0.000000
    59  H    0.000000   0.000000
    60  Cl   0.000000   0.000000
    61  Cl   0.000000   0.000000
    62  C    0.000000   0.000000
    63  H    0.000000   0.000000
    64  H    0.000000   0.000000
    65  Cl   0.000000   0.000000
    66  Cl   0.000000   0.000000
    67  C    0.000000   0.000000
    68  H    0.000000   0.000000
    69  H    0.000000   0.000000
    70  Cl   0.000000   0.000000
    71  Cl   0.000000   0.000000
    72  C    0.000000   0.000000
    73  H    0.000000   0.000000
    74  H    0.000000   0.000000
    75  Cl   0.000000   0.000000
    76  Cl   0.000000   0.000000
    77  C    0.000000   0.000000
    78  H    0.000000   0.000000
    79  H    0.000000   0.000000
    80  Cl   0.000000   0.000000
    81  Cl   0.000000   0.000000
    82  C    0.000000   0.000000
    83  H    0.000000   0.000000
    84  H    0.000000   0.000000
    85  Cl   0.000000   0.000000
    86  Cl   0.000000   0.000000
    87  C    0.000000   0.000000
    88  H    0.000000   0.000000
    89  H    0.000000   0.000000
    90  Cl   0.000000   0.000000
    91  Cl   0.000000   0.000000
 Sum of Mulliken charges =   0.00000  -0.00000

 Dipole moment (field-independent basis, Debye):
    X=              0.0543    Y=             -0.1384    Z=             -0.2392  Tot=              0.2816
 N-N= 1.844853402731D+02 E-N=-2.804231233973D+02  KE=-6.322738199599D+01
 Calling FoFJK, ICntrl=      2127 FMM=F ISym2X=0 I1Cent= 0 IOpClX= 1 NMat=1 NMatS=1 NMatT=0.
 Cartesian Forces:  Max     0.031837635 RMS     0.004223881
 SvSCFP is copying densities from files   528 and   530 to   603.
 ONIOM: saving gridpoint  1
 ONIOM: restoring gridpoint  3
 ONIOM: calculating energy.
 ONIOM: gridpoint  1 method:  low   system:  model energy:     0.086682804604
 ONIOM: gridpoint  2 method:  high  system:  model energy:  -309.603440579605
 ONIOM: gridpoint  3 method:  low   system:  real  energy:    -0.403134122675

 Normal termination of Gaussian 16 at Fri Jul 12 22:44:13 2024.
