 Gaussian 16, Revision C.01,
 Gaussian 16:  ES64L-G16RevC.01  3-Jul-2019

 ----------------------------------------------------------------------
 # scf=(xqc,maxcycle=64) force guess=read oniom(b3lyp/em=gd3bj/6-31g(d)
 :pm6) nosymm
 ----------------------------------------------------------------------

 ----------
 Title Card
 ----------
 Symbolic Z-matrix:
 Charge =  0 Multiplicity = 1 for low   level calculation on real  system.
 Charge =  0 Multiplicity = 3 for high  level calculation on model system.
 Charge =  0 Multiplicity = 3 for low   level calculation on model system.

                          Input orientation:
 ---------------------------------------------------------------------
 Center     Atomic      Atomic             Coordinates (Angstroms)
 Number     Number       Type             X           Y           Z
 ---------------------------------------------------------------------
      1          6           0        0.548559   -0.170713   -0.173173
      2          6           0       -0.089944   -1.291300    0.433883
      3          6           0       -0.275464    0.871839   -0.650224
      4          6           0       -1.466953   -1.353782    0.526560
      5          1           0        0.523522   -2.107925    0.802912
      6          6           0        1.970681   -0.129111   -0.318154
      7          6           0       -1.659576    0.806245   -0.515224
      8          1           0        0.167794    1.726134   -1.151953
      9          6           0       -2.256454   -0.312241    0.061676
     10          1           0       -1.933371   -2.247479    0.956019
     11          6           0        2.685508    0.912346   -0.992022
     12          1           0        2.518155   -0.988161    0.077193
     13          1           0       -2.261221    1.628109   -0.889367
     14          1           0       -3.349876   -0.370037    0.127139
     15          1           0        3.645537    1.282892   -0.642490
     16          1           0        2.383295    1.292297   -1.967577
     17          6           0        4.982515    0.556217    1.989087
     18          1           0        5.267191    1.141110    1.089373
     19          1           0        3.986585    0.866372    2.368605
     20         17           0        6.196207    0.773435    3.248082
     21         17           0        4.935612   -1.171177    1.571676
     22          6           0        5.717679   -1.062448   -1.563076
     23          1           0        4.642694   -1.124911   -1.289070
     24          1           0        6.338757   -1.654882   -0.860295
     25         17           0        6.247394    0.629341   -1.527984
     26         17           0        5.948993   -1.653615   -3.212344
     27          6           0        2.113784    3.181337    1.548455
     28          1           0        1.851654    2.139891    1.257221
     29          1           0        1.362335    3.896336    1.149115
     30         17           0        3.721741    3.593531    0.926994
     31         17           0        2.195342    3.315322    3.312611
     32          6           0       -2.246012    0.804475    3.504874
     33          1           0       -1.895581   -0.248310    3.548568
     34          1           0       -2.213706    1.283380    4.506648
     35         17           0       -3.904951    0.843197    2.880941
     36         17           0       -1.234191    1.715908    2.370859
     37          6           0       -1.037839    4.545020    4.558166
     38          1           0       -0.365825    5.418273    4.673480
     39          1           0       -0.879748    4.058899    3.572016
     40         17           0       -2.720444    5.050453    4.717081
     41         17           0       -0.710399    3.375932    5.856525
     42          6           0        4.433378    1.065459   -4.435235
     43          1           0        3.888609    0.241354   -3.926215
     44          1           0        5.530327    0.905933   -4.368369
     45         17           0        4.020347    2.620909   -3.683529
     46         17           0        3.932230    1.160152   -6.127620
     47          6           0       -5.429435    1.951455   -0.383548
     48          1           0       -6.322260    1.362184   -0.092335
     49          1           0       -4.655089    1.921248    0.412175
     50         17           0       -5.900836    3.630721   -0.681241
     51         17           0       -4.768926    1.296091   -1.888568
     52          6           0       -1.596512    0.991238   -4.099987
     53          1           0       -1.934749    1.302835   -5.109673
     54          1           0       -2.144085    1.540170   -3.302523
     55         17           0        0.144296    1.307535   -3.940424
     56         17           0       -1.838876   -0.749083   -3.900286
     57          6           0       -1.425310    5.899374    0.748372
     58          1           0       -1.062129    6.129289   -0.277364
     59          1           0       -2.298746    6.530370    1.013584
     60         17           0       -0.113660    6.189407    1.906503
     61         17           0       -1.866982    4.185772    0.876019
     62          6           0        1.105956    0.337521    4.952234
     63          1           0        0.728882    1.342083    4.663467
     64          1           0        1.954916    0.420359    5.659910
     65         17           0        1.622663   -0.539317    3.506279
     66         17           0       -0.200503   -0.587810    5.709667
     67          6           0        1.065910   -2.169985   -3.029691
     68          1           0        0.194994   -2.770303   -3.359654
     69          1           0        0.743805   -1.161462   -2.688235
     70         17           0        2.216086   -2.015418   -4.363526
     71         17           0        1.894053   -3.008677   -1.704213
     72          6           0        1.873007    3.924093   -5.938847
     73          1           0        2.844057    3.813450   -6.464012
     74          1           0        1.775834    3.154737   -5.145782
     75         17           0        1.771731    5.542420   -5.216424
     76         17           0        0.538209    3.773006   -7.083765
     77          6           0       -1.504411    4.648262   -3.678422
     78          1           0       -0.516844    4.271580   -4.019813
     79          1           0       -1.540108    5.754007   -3.766306
     80         17           0       -2.804675    3.928562   -4.640026
     81         17           0       -1.798724    4.164119   -1.995150
     82          6           0        2.144051    5.983629   -1.626303
     83          1           0        2.758360    5.939473   -2.548820
     84          1           0        2.774373    5.941892   -0.714939
     85         17           0        1.184999    7.468712   -1.625792
     86         17           0        1.010989    4.620551   -1.612477
     87          6           0       -4.376832    6.890006   -1.685766
     88          1           0       -5.349311    6.947559   -2.214726
     89          1           0       -4.086986    5.831358   -1.511780
     90         17           0       -3.135260    7.705222   -2.648760
     91         17           0       -4.493852    7.739664   -0.139190
 ---------------------------------------------------------------------

 SCF Done:  E(UPM6) = -0.403134122675     A.U. after   16 cycles
 SCF Done:  E(UB3LYP) =  -309.577945355     A.U. after   14 cycles
 SCF Done:  E(UPM6) =  0.112439156289     A.U. after   17 cycles

 Alpha  occ. eigenvalues --   -1.09886  -1.00424  -0.95767  -0.91204  -0.81488
 Alpha  occ. eigenvalues --   -0.78135  -0.71739  -0.63884  -0.58794  -0.56933
 Alpha  occ. eigenvalues --   -0.54507  -0.52262  -0.51346  -0.50576  -0.48568
 Alpha  occ. eigenvalues --   -0.44877  -0.43414  -0.40834  -0.37007  -0.35919
 Alpha  occ. eigenvalues --   -0.29960
 Alpha virt. eigenvalues --    0.01779   0.02697   0.09738   0.15285   0.15559
 Alpha virt. eigenvalues --    0.17335   0.18259   0.18451   0.18996   0.19582
 Alpha virt. eigenvalues --    0.20362   0.20811   0.21462   0.22035   0.22281

  Beta  occ. eigenvalues --   -1.09762  -0.99741  -0.95665  -0.90147  -0.80766
  Beta  occ. eigenvalues --   -0.77922  -0.71045  -0.63282  -0.58139  -0.56551
  Beta  occ. eigenvalues --   -0.53534  -0.52122  -0.50145  -0.49068  -0.47591
  Beta  occ. eigenvalues --   -0.44326  -0.43183  -0.36897  -0.36103
  Beta virt. eigenvalues --   -0.03357   0.02236   0.02650   0.07040   0.10872
  Beta virt. eigenvalues --    0.15743   0.15921   0.17984   0.18595   0.18908
  Beta virt. eigenvalues --    0.19407   0.20325   0.20698   0.21290   0.21783

 Mulliken charges and spin densities:
               1          2
     1  C    0.042501  -0.373796
     2  C   -0.171351   0.449236
     3  C   -0.161704   0.456495
     4  C   -0.136679  -0.355229
     5  H    0.147449  -0.015544
     6  C   -0.171373   0.797322
     7  C   -0.139649  -0.368422
     8  H    0.150858  -0.016049
     9  C   -0.148392   0.429715
    10  H    0.145773   0.012629
    11  C   -0.304815   1.036302
    12  H    0.152782  -0.008989
    13  H    0.144239   0.012744
    14  H    0.146602  -0.015191
    15  H    0.151495  -0.021989
    16  H    0.152262  -0.019235
    17  C    0.000000   0.000000
    18  H    0.000000   0.000000
    19  H    0.000000   0.000000
    20  Cl   0.000000   0.000000
    21  Cl   0.000000   0.000000
    22  C    0.000000   0.000000
    23  H    0.000000   0.000000
    24  H    0.000000   0.000000
    25  Cl   0.000000   0.000000
    26  Cl   0.000000   0.000000
    27  C    0.000000   0.000000
    28  H    0.000000   0.000000
    29  H    0.000000   0.000000
    30  Cl   0.000000   0.000000
    31  Cl   0.000000   0.000000
    32  C    0.000000   0.000000
    33  H    0.000000   0.000000
    34  H    0.000000   0.000000
    35  Cl   0.000000   0.000000
    36  Cl   0.000000   0.000000
    37  C    0.000000   0.000000
    38  H    0.000000   0.000000
    39  H    0.000000   0.000000
    40  Cl   0.000000   0.000000
    41  Cl   0.000000   0.000000
    42  C    0.000000   0.000000
    43  H    0.000000   0.000000
    44  H    0.000000   0.000000
    45  Cl   0.000000   0.000000
    46  Cl   0.000000   0.000000
    47  C    0.000000   0.000000
    48  H    0.000000   0.000000
    49  H    0.000000   0.000000
    50  Cl   0.000000   0.000000
    51  Cl   0.000000   0.000000
    52  C    0.000000   0.000000
    53  H    0.000000   0.000000
    54  H    0.000000   0.000000
    55  Cl   0.000000   0.000000
    56  Cl   0.000000   0.000000
    57  C    0.000000   0.000000
    58  H    0.000000   0.000000
    59  H    0.000000   0.000000
    60  Cl   0.000000   0.000000
    61  Cl   0.000000   0.000000
    62  C    0.000000   0.000000
    63  H    0.000000   0.000000
    64  H    0.000000   0.000000
    65  Cl   0.000000   0.000000
    66  Cl   0.000000   0.000000
    67  C    0.000000   0.000000
    68  H    0.000000   0.000000
    69  H    0.000000   0.000000
    70  Cl   0.000000   0.000000
    71  Cl   0.000000   0.000000
    72  C    0.000000   0.000000
    73  H    0.000000   0.000000
    74  H    0.000000   0.000000
    75  Cl   0.000000   0.000000
    76  Cl   0.000000   0.000000
    77  C    0.000000   0.000000
    78  H    0.000000   0.000000
    79  H    0.000000   0.000000
    80  Cl   0.000000   0.000000
    81  Cl   0.000000   0.000000
    82  C    0.000000   0.000000
    83  H    0.000000   0.000000
    84  H    0.000000   0.000000
    85  Cl   0.000000   0.000000
    86  Cl   0.000000   0.000000
    87  C    0.000000   0.000000
    88  H    0.000000   0.000000
    89  H    0.000000   0.000000
    90  Cl   0.000000   0.000000
    91  Cl   0.000000   0.000000
 Sum of Mulliken charges =   0.00000   2.00000

 Dipole moment (field-independent basis, Debye):
    X=              0.0430    Y=             -0.0974    Z=             -0.2168  Tot=              0.2415
 N-N= 1.844853402731D+02 E-N=-2.804191425290D+02  KE=-6.319150964560D+01
 Calling FoFJK, ICntrl=      2127 FMM=F ISym2X=0 I1Cent= 0 IOpClX= 1 NMat=1 NMatS=1 NMatT=0.
 Cartesian Forces:  Max     0.023632278 RMS     0.003622119
 SvSCFP is copying densities from files   528 and   530 to   603.
 ONIOM: saving gridpoint  1
 ONIOM: restoring gridpoint  3
 ONIOM: calculating energy.
 ONIOM: gridpoint  1 method:  low   system:  model energy:     0.112439156289
 ONIOM: gridpoint  2 method:  high  system:  model energy:  -309.577945354602
 ONIOM: gridpoint  3 method:  low   system:  real  energy:    -0.403134122675

 Normal termination of Gaussian 16 at Fri Jul 12 22:43:21 2024.
