 Gaussian 16, Revision C.01,
 Gaussian 16:  ES64L-G16RevC.01  3-Jul-2019

 ----------------------------------------------------------------------
 # scf=(xqc,maxcycle=64) force guess=read oniom(td/b3lyp/em=gd3bj/6-31g
 (d):pm6) nosymm
 ----------------------------------------------------------------------

 ----------
 Title Card
 ----------
 Symbolic Z-matrix:
 Charge =  0 Multiplicity = 1 for low   level calculation on real  system.
 Charge =  0 Multiplicity = 1 for high  level calculation on model system.
 Charge =  0 Multiplicity = 1 for low   level calculation on model system.

                          Input orientation:
 ---------------------------------------------------------------------
 Center     Atomic      Atomic             Coordinates (Angstroms)
 Number     Number       Type             X           Y           Z
 ---------------------------------------------------------------------
      1          6           0        0.550245   -0.174335   -0.176238
      2          6           0       -0.088001   -1.291643    0.423752
      3          6           0       -0.275952    0.874770   -0.653233
      4          6           0       -1.460955   -1.360067    0.527321
      5          1           0        0.530174   -2.107778    0.793606
      6          6           0        1.971095   -0.138053   -0.313300
      7          6           0       -1.652549    0.810750   -0.517360
      8          1           0        0.174913    1.736656   -1.138811
      9          6           0       -2.261578   -0.306295    0.057566
     10          1           0       -1.924908   -2.236177    0.970015
     11          6           0        2.685999    0.904180   -0.998298
     12          1           0        2.524378   -0.988274    0.090056
     13          1           0       -2.263140    1.636136   -0.876253
     14          1           0       -3.342968   -0.367245    0.129832
     15          1           0        3.636833    1.286766   -0.634011
     16          1           0        2.357708    1.289891   -1.961901
     17          6           0        4.980175    0.556347    1.990401
     18          1           0        5.264530    1.142852    1.091564
     19          1           0        3.983852    0.864893    2.370186
     20         17           0        6.193281    0.772880    3.250083
     21         17           0        4.935660   -1.170626    1.571137
     22          6           0        5.721041   -1.064350   -1.562301
     23          1           0        4.645101   -1.121439   -1.290781
     24          1           0        6.338364   -1.660672   -0.859418
     25         17           0        6.257807    0.625220   -1.524081
     26         17           0        5.952422   -1.654425   -3.211975
     27          6           0        2.112142    3.182256    1.546633
     28          1           0        1.846515    2.141412    1.256969
     29          1           0        1.361782    3.900701    1.151357
     30         17           0        3.718892    3.588748    0.918710
     31         17           0        2.200103    3.314823    3.310467
     32          6           0       -2.250247    0.807588    3.496366
     33          1           0       -1.892675   -0.242759    3.537084
     34          1           0       -2.209513    1.285794    4.498031
     35         17           0       -3.915380    0.838099    2.889745
     36         17           0       -1.253594    1.723028    2.352406
     37          6           0       -1.041240    4.549328    4.564706
     38          1           0       -0.370297    5.423064    4.682972
     39          1           0       -0.879720    4.063161    3.579129
     40         17           0       -2.724513    5.054265    4.717654
     41         17           0       -0.717116    3.379706    5.863266
     42          6           0        4.433889    1.071966   -4.438749
     43          1           0        3.885017    0.252644   -3.926599
     44          1           0        5.530127    0.907635   -4.370806
     45         17           0        4.026109    2.631015   -3.691704
     46         17           0        3.933436    1.162845   -6.131584
     47          6           0       -5.427928    1.956658   -0.385254
     48          1           0       -6.321603    1.373938   -0.084268
     49          1           0       -4.646855    1.923566    0.403857
     50         17           0       -5.894548    3.637503   -0.681829
     51         17           0       -4.786648    1.294134   -1.895214
     52          6           0       -1.594885    0.988207   -4.096021
     53          1           0       -1.929976    1.301044   -5.106317
     54          1           0       -2.145026    1.536245   -3.299721
     55         17           0        0.145348    1.305338   -3.931504
     56         17           0       -1.837378   -0.752213   -3.899600
     57          6           0       -1.420257    5.897433    0.752361
     58          1           0       -1.056848    6.126482   -0.273301
     59          1           0       -2.296675    6.524941    1.016015
     60         17           0       -0.110049    6.192933    1.910659
     61         17           0       -1.856185    4.182814    0.881770
     62          6           0        1.107440    0.335504    4.949264
     63          1           0        0.730247    1.338463    4.655318
     64          1           0        1.955385    0.422258    5.657849
     65         17           0        1.626613   -0.548747    3.508706
     66         17           0       -0.200206   -0.586376    5.708520
     67          6           0        1.066236   -2.169819   -3.029246
     68          1           0        0.193050   -2.767474   -3.357643
     69          1           0        0.744924   -1.162286   -2.683852
     70         17           0        2.214422   -2.012828   -4.364568
     71         17           0        1.897622   -3.016267   -1.710704
     72          6           0        1.872322    3.925018   -5.942807
     73          1           0        2.842881    3.814692   -6.468635
     74          1           0        1.776321    3.156307   -5.149014
     75         17           0        1.770746    5.544159   -5.222655
     76         17           0        0.537594    3.771545   -7.087400
     77          6           0       -1.511642    4.640335   -3.680027
     78          1           0       -0.526466    4.253607   -4.015588
     79          1           0       -1.539104    5.747057   -3.756007
     80         17           0       -2.806299    3.943778   -4.664174
     81         17           0       -1.812475    4.147388   -2.000532
     82          6           0        2.148969    5.979676   -1.625168
     83          1           0        2.764600    5.937476   -2.546849
     84          1           0        2.783747    5.941332   -0.716636
     85         17           0        1.183644    7.460583   -1.624029
     86         17           0        1.014321    4.616896   -1.611071
     87          6           0       -4.377046    6.886645   -1.685969
     88          1           0       -5.349425    6.944423   -2.215137
     89          1           0       -4.083484    5.827982   -1.518287
     90         17           0       -3.137731    7.712109   -2.643031
     91         17           0       -4.497996    7.726174   -0.134188
 ---------------------------------------------------------------------

 SCF Done:  E(UPM6) = -0.403777686323     A.U. after   16 cycles
 SCF Done:  E(UB3LYP) =  -309.636215753     A.U. after   11 cycles

 Excitation energies and oscillator strengths:

 Excited state symmetry could not be determined.
 Excited State   1:  3.000-?Sym    0.8593 eV 1442.87 nm  f=0.0000  <S**2>=2.000
     26A -> 29A       -0.14600
     26A -> 31A       -0.12812
     28A -> 29A        0.78443
     28A -> 31A        0.12710
     26B -> 29B        0.14600
     26B -> 31B        0.12812
     28B -> 29B       -0.78443
     28B -> 31B       -0.12710
     28A <- 29A        0.38984
     28B <- 29B       -0.38984
 This state for optimization and/or second-order correction.
 Total Energy, E(TD-HF/TD-DFT) =  -309.604637392
 Copying the excited state density for this state as the 1-particle RhoCI density.

 Excited state symmetry could not be determined.
 Excited State   2:  3.000-?Sym    3.7295 eV  332.44 nm  f=0.0000  <S**2>=2.000
     26A -> 29A        0.46117
     27A -> 29A        0.28337
     27A -> 30A       -0.27514
     28A -> 29A        0.10149
     28A -> 31A       -0.32219
     26B -> 29B       -0.46117
     27B -> 29B       -0.28337
     27B -> 30B        0.27514
     28B -> 29B       -0.10149
     28B -> 31B        0.32219

 Excited state symmetry could not be determined.
 Excited State   3:  3.000-?Sym    3.8662 eV  320.69 nm  f=0.0000  <S**2>=2.000
     26A -> 29A        0.22647
     27A -> 29A       -0.55363
     27A -> 30A       -0.10784
     28A -> 30A        0.30861
     28A -> 31A       -0.14419
     26B -> 29B       -0.22647
     27B -> 29B        0.55363
     27B -> 30B        0.10784
     28B -> 30B       -0.30861
     28B -> 31B        0.14419

 SCF Done:  E(UPM6) =  0.861388899226E-01 A.U. after   18 cycles

 Alpha  occ. eigenvalues --   -1.09741  -1.00151  -0.95851  -0.90607  -0.81190
 Alpha  occ. eigenvalues --   -0.77861  -0.71433  -0.63760  -0.58637  -0.56692
 Alpha  occ. eigenvalues --   -0.53984  -0.52305  -0.50796  -0.49817  -0.48151
 Alpha  occ. eigenvalues --   -0.44835  -0.43204  -0.39553  -0.36781  -0.32081
 Alpha virt. eigenvalues --    0.00624   0.01822   0.04415   0.10007   0.15583
 Alpha virt. eigenvalues --    0.15648   0.17685   0.18321   0.18551   0.19271
 Alpha virt. eigenvalues --    0.19840   0.20432   0.21126   0.21573   0.22369

  Beta  occ. eigenvalues --   -1.09681  -1.00074  -0.95803  -0.90743  -0.81228
  Beta  occ. eigenvalues --   -0.77863  -0.71527  -0.63584  -0.58550  -0.56758
  Beta  occ. eigenvalues --   -0.54117  -0.52264  -0.50815  -0.49609  -0.48002
  Beta  occ. eigenvalues --   -0.44715  -0.43212  -0.38719  -0.36155  -0.34109
  Beta virt. eigenvalues --   -0.01174   0.02406   0.05191   0.10529   0.15526
  Beta virt. eigenvalues --    0.15813   0.17667   0.18395   0.18617   0.19274
  Beta virt. eigenvalues --    0.19894   0.20620   0.21072   0.21516   0.22297

 Mulliken charges and spin densities:
               1          2
     1  C    0.030334  -0.394843
     2  C   -0.171616   0.382435
     3  C   -0.158204   0.391665
     4  C   -0.135846  -0.323367
     5  H    0.147385  -0.013396
     6  C   -0.149244   0.707203
     7  C   -0.141805  -0.323835
     8  H    0.151093  -0.013459
     9  C   -0.146158   0.384886
    10  H    0.144276   0.011255
    11  C   -0.310084  -0.844010
    12  H    0.149014  -0.034387
    13  H    0.144502   0.011329
    14  H    0.144849  -0.013206
    15  H    0.149730   0.034796
    16  H    0.151776   0.036936
    17  C    0.000000   0.000000
    18  H    0.000000   0.000000
    19  H    0.000000   0.000000
    20  Cl   0.000000   0.000000
    21  Cl   0.000000   0.000000
    22  C    0.000000   0.000000
    23  H    0.000000   0.000000
    24  H    0.000000   0.000000
    25  Cl   0.000000   0.000000
    26  Cl   0.000000   0.000000
    27  C    0.000000   0.000000
    28  H    0.000000   0.000000
    29  H    0.000000   0.000000
    30  Cl   0.000000   0.000000
    31  Cl   0.000000   0.000000
    32  C    0.000000   0.000000
    33  H    0.000000   0.000000
    34  H    0.000000   0.000000
    35  Cl   0.000000   0.000000
    36  Cl   0.000000   0.000000
    37  C    0.000000   0.000000
    38  H    0.000000   0.000000
    39  H    0.000000   0.000000
    40  Cl   0.000000   0.000000
    41  Cl   0.000000   0.000000
    42  C    0.000000   0.000000
    43  H    0.000000   0.000000
    44  H    0.000000   0.000000
    45  Cl   0.000000   0.000000
    46  Cl   0.000000   0.000000
    47  C    0.000000   0.000000
    48  H    0.000000   0.000000
    49  H    0.000000   0.000000
    50  Cl   0.000000   0.000000
    51  Cl   0.000000   0.000000
    52  C    0.000000   0.000000
    53  H    0.000000   0.000000
    54  H    0.000000   0.000000
    55  Cl   0.000000   0.000000
    56  Cl   0.000000   0.000000
    57  C    0.000000   0.000000
    58  H    0.000000   0.000000
    59  H    0.000000   0.000000
    60  Cl   0.000000   0.000000
    61  Cl   0.000000   0.000000
    62  C    0.000000   0.000000
    63  H    0.000000   0.000000
    64  H    0.000000   0.000000
    65  Cl   0.000000   0.000000
    66  Cl   0.000000   0.000000
    67  C    0.000000   0.000000
    68  H    0.000000   0.000000
    69  H    0.000000   0.000000
    70  Cl   0.000000   0.000000
    71  Cl   0.000000   0.000000
    72  C    0.000000   0.000000
    73  H    0.000000   0.000000
    74  H    0.000000   0.000000
    75  Cl   0.000000   0.000000
    76  Cl   0.000000   0.000000
    77  C    0.000000   0.000000
    78  H    0.000000   0.000000
    79  H    0.000000   0.000000
    80  Cl   0.000000   0.000000
    81  Cl   0.000000   0.000000
    82  C    0.000000   0.000000
    83  H    0.000000   0.000000
    84  H    0.000000   0.000000
    85  Cl   0.000000   0.000000
    86  Cl   0.000000   0.000000
    87  C    0.000000   0.000000
    88  H    0.000000   0.000000
    89  H    0.000000   0.000000
    90  Cl   0.000000   0.000000
    91  Cl   0.000000   0.000000
 Sum of Mulliken charges =  -0.00000   0.00000

 Dipole moment (field-independent basis, Debye):
    X=              0.0538    Y=             -0.0834    Z=             -0.1733  Tot=              0.1997
 N-N= 1.844755199210D+02 E-N=-2.804049644373D+02  KE=-6.322424057256D+01
 Calling FoFJK, ICntrl=      2127 FMM=F ISym2X=0 I1Cent= 0 IOpClX= 1 NMat=1 NMatS=1 NMatT=0.
 Cartesian Forces:  Max     0.032674132 RMS     0.004322596
 SvSCFP is copying densities from files   528 and   530 to   603.
 ONIOM: saving gridpoint  1
 ONIOM: restoring gridpoint  3
 ONIOM: calculating energy.
 ONIOM: gridpoint  1 method:  low   system:  model energy:     0.086138889923
 ONIOM: gridpoint  2 method:  high  system:  model energy:  -309.604637391666
 ONIOM: gridpoint  3 method:  low   system:  real  energy:    -0.403777686323

 Normal termination of Gaussian 16 at Fri Jul 12 22:45:21 2024.
