 Gaussian 16, Revision C.01,
 Gaussian 16:  ES64L-G16RevC.01  3-Jul-2019

 ----------------------------------------------------------------------
 # scf=(xqc,maxcycle=64) force guess=read oniom(td/b3lyp/em=gd3bj/6-31g
 (d):pm6) nosymm
 ----------------------------------------------------------------------

 ----------
 Title Card
 ----------
 Symbolic Z-matrix:
 Charge =  0 Multiplicity = 1 for low   level calculation on real  system.
 Charge =  0 Multiplicity = 1 for high  level calculation on model system.
 Charge =  0 Multiplicity = 1 for low   level calculation on model system.

                          Input orientation:
 ---------------------------------------------------------------------
 Center     Atomic      Atomic             Coordinates (Angstroms)
 Number     Number       Type             X           Y           Z
 ---------------------------------------------------------------------
      1          6           0        0.551575   -0.175107   -0.179186
      2          6           0       -0.086453   -1.293926    0.417982
      3          6           0       -0.272917    0.876478   -0.655016
      4          6           0       -1.459371   -1.358306    0.525213
      5          1           0        0.534573   -2.107371    0.786742
      6          6           0        1.970953   -0.143997   -0.310040
      7          6           0       -1.651395    0.813611   -0.518281
      8          1           0        0.179626    1.743793   -1.129392
      9          6           0       -2.258415   -0.305519    0.056150
     10          1           0       -1.919808   -2.230270    0.980705
     11          6           0        2.686438    0.898404   -1.002077
     12          1           0        2.528402   -0.988989    0.098823
     13          1           0       -2.263783    1.641620   -0.866968
     14          1           0       -3.340658   -0.365014    0.131793
     15          1           0        3.630188    1.290226   -0.628534
     16          1           0        2.340369    1.288137   -1.958277
     17          6           0        4.978490    0.556435    1.991357
     18          1           0        5.262611    1.144084    1.093154
     19          1           0        3.981881    0.863817    2.371323
     20         17           0        6.191171    0.772505    3.251546
     21         17           0        4.935704   -1.170233    1.570747
     22          6           0        5.723455   -1.065706   -1.561751
     23          1           0        4.646850   -1.118962   -1.292001
     24          1           0        6.338051   -1.664833   -0.858795
     25         17           0        6.265295    0.622271   -1.521256
     26         17           0        5.954887   -1.654983   -3.211726
     27          6           0        2.110952    3.182911    1.545362
     28          1           0        1.842724    2.142512    1.256723
     29          1           0        1.361364    3.903813    1.152929
     30         17           0        3.716879    3.585367    0.912771
     31         17           0        2.203545    3.314443    3.308980
     32          6           0       -2.253292    0.809802    3.490269
     33          1           0       -1.890624   -0.238824    3.528775
     34          1           0       -2.206505    1.287602    4.491817
     35         17           0       -3.922875    0.834413    2.896073
     36         17           0       -1.267480    1.728152    2.339205
     37          6           0       -1.043696    4.552433    4.569420
     38          1           0       -0.373529    5.426520    4.689809
     39          1           0       -0.879694    4.066243    3.584253
     40         17           0       -2.727457    5.057004    4.718083
     41         17           0       -0.721956    3.382368    5.868089
     42          6           0        4.434228    1.076651   -4.441252
     43          1           0        3.882436    0.260728   -3.926892
     44          1           0        5.529950    0.908887   -4.372561
     45         17           0        4.030240    2.638289   -3.697530
     46         17           0        3.934324    1.164802   -6.134425
     47          6           0       -5.426897    1.960433   -0.386452
     48          1           0       -6.321152    1.382357   -0.078392
     49          1           0       -4.640896    1.925248    0.397796
     50         17           0       -5.889941    3.642446   -0.682264
     51         17           0       -4.799307    1.292745   -1.899962
     52          6           0       -1.593713    0.986040   -4.093175
     53          1           0       -1.926560    1.299796   -5.103894
     54          1           0       -2.145724    1.533436   -3.297728
     55         17           0        0.146114    1.303789   -3.925060
     56         17           0       -1.836300   -0.754476   -3.899085
     57          6           0       -1.416580    5.896040    0.755211
     58          1           0       -1.053063    6.124426   -0.270450
     59          1           0       -2.295135    6.521065    1.017780
     60         17           0       -0.107452    6.195505    1.913707
     61         17           0       -1.848462    4.180668    0.885763
     62          6           0        1.108484    0.334061    4.947119
     63          1           0        0.731247    1.335871    4.649425
     64          1           0        1.955701    0.423624    5.656349
     65         17           0        1.629438   -0.555493    3.510429
     66         17           0       -0.200023   -0.585337    5.707695
     67          6           0        1.066473   -2.169751   -3.028919
     68          1           0        0.191663   -2.765455   -3.356288
     69          1           0        0.745851   -1.162922   -2.680643
     70         17           0        2.213148   -2.010898   -4.365373
     71         17           0        1.900185   -3.021655   -1.715247
     72          6           0        1.871841    3.925678   -5.945692
     73          1           0        2.842093    3.815567   -6.471987
     74          1           0        1.776645    3.157438   -5.151338
     75         17           0        1.769987    5.545423   -5.227089
     76         17           0        0.537105    3.770475   -7.090036
     77          6           0       -1.516672    4.634646   -3.681176
     78          1           0       -0.533142    4.240841   -4.012717
     79          1           0       -1.538223    5.742121   -3.748653
     80         17           0       -2.807598    3.954530   -4.681145
     81         17           0       -1.822508    4.135344   -2.004400
     82          6           0        2.152434    5.976867   -1.624394
     83          1           0        2.768955    5.935951   -2.545550
     84          1           0        2.790284    5.940777   -0.717782
     85         17           0        1.182776    7.454910   -1.622754
     86         17           0        1.016751    4.614141   -1.610072
     87          6           0       -4.377202    6.884219   -1.686119
     88          1           0       -5.349501    6.942136   -2.215432
     89          1           0       -4.080972    5.825553   -1.523003
     90         17           0       -3.139471    7.717033   -2.638906
     91         17           0       -4.500993    7.716414   -0.130549
 ---------------------------------------------------------------------

 SCF Done:  E(UPM6) = -0.403849977168     A.U. after   15 cycles
 SCF Done:  E(UB3LYP) =  -309.636347797     A.U. after   10 cycles

 Excitation energies and oscillator strengths:

 Excited state symmetry could not be determined.
 Excited State   1:  3.000-?Sym    0.8561 eV 1448.22 nm  f=0.0000  <S**2>=2.000
     26A -> 29A       -0.14573
     26A -> 31A       -0.12823
     28A -> 29A        0.78554
     28A -> 31A        0.12788
     26B -> 29B        0.14573
     26B -> 31B        0.12823
     28B -> 29B       -0.78554
     28B -> 31B       -0.12788
     28A <- 29A        0.39190
     28B <- 29B       -0.39190
 This state for optimization and/or second-order correction.
 Total Energy, E(TD-HF/TD-DFT) =  -309.604886147
 Copying the excited state density for this state as the 1-particle RhoCI density.

 Excited state symmetry could not be determined.
 Excited State   2:  3.000-?Sym    3.7357 eV  331.89 nm  f=0.0000  <S**2>=2.000
     26A -> 29A        0.45572
     27A -> 29A       -0.29395
     27A -> 30A        0.27860
     28A -> 31A       -0.31821
     26B -> 29B       -0.45572
     27B -> 29B        0.29395
     27B -> 30B       -0.27860
     28B -> 31B        0.31821

 Excited state symmetry could not be determined.
 Excited State   3:  3.000-?Sym    3.8635 eV  320.92 nm  f=0.0000  <S**2>=2.000
     26A -> 29A        0.23109
     27A -> 29A        0.54354
     27A -> 30A        0.11447
     28A -> 30A        0.31898
     28A -> 31A       -0.14750
     26B -> 29B       -0.23109
     27B -> 29B       -0.54354
     27B -> 30B       -0.11447
     28B -> 30B       -0.31898
     28B -> 31B        0.14750

 SCF Done:  E(UPM6) =  0.861132672358E-01 A.U. after   17 cycles

 Alpha  occ. eigenvalues --   -1.09740  -1.00164  -0.95841  -0.90521  -0.81181
 Alpha  occ. eigenvalues --   -0.77859  -0.71376  -0.63769  -0.58681  -0.56643
 Alpha  occ. eigenvalues --   -0.54043  -0.52316  -0.50765  -0.49748  -0.48181
 Alpha  occ. eigenvalues --   -0.44836  -0.43218  -0.39591  -0.36781  -0.32083
 Alpha virt. eigenvalues --    0.00646   0.01803   0.04433   0.09998   0.15561
 Alpha virt. eigenvalues --    0.15665   0.17680   0.18327   0.18547   0.19230
 Alpha virt. eigenvalues --    0.19801   0.20421   0.21147   0.21569   0.22357

  Beta  occ. eigenvalues --   -1.09679  -1.00086  -0.95793  -0.90659  -0.81219
  Beta  occ. eigenvalues --   -0.77866  -0.71470  -0.63592  -0.58590  -0.56709
  Beta  occ. eigenvalues --   -0.54182  -0.52274  -0.50773  -0.49545  -0.48029
  Beta  occ. eigenvalues --   -0.44714  -0.43223  -0.38750  -0.36144  -0.34125
  Beta virt. eigenvalues --   -0.01178   0.02396   0.05205   0.10528   0.15505
  Beta virt. eigenvalues --    0.15828   0.17655   0.18402   0.18618   0.19238
  Beta virt. eigenvalues --    0.19856   0.20611   0.21095   0.21509   0.22282

 Mulliken charges and spin densities:
               1          2
     1  C    0.030111  -0.395522
     2  C   -0.171673   0.385086
     3  C   -0.158030   0.394545
     4  C   -0.135811  -0.324142
     5  H    0.147436  -0.013463
     6  C   -0.150677   0.709189
     7  C   -0.141326  -0.326516
     8  H    0.150924  -0.013542
     9  C   -0.146424   0.385650
    10  H    0.144341   0.011303
    11  C   -0.309326  -0.848203
    12  H    0.149323  -0.033961
    13  H    0.144543   0.011397
    14  H    0.144943  -0.013270
    15  H    0.150081   0.034919
    16  H    0.151567   0.036530
    17  C    0.000000   0.000000
    18  H    0.000000   0.000000
    19  H    0.000000   0.000000
    20  Cl   0.000000   0.000000
    21  Cl   0.000000   0.000000
    22  C    0.000000   0.000000
    23  H    0.000000   0.000000
    24  H    0.000000   0.000000
    25  Cl   0.000000   0.000000
    26  Cl   0.000000   0.000000
    27  C    0.000000   0.000000
    28  H    0.000000   0.000000
    29  H    0.000000   0.000000
    30  Cl   0.000000   0.000000
    31  Cl   0.000000   0.000000
    32  C    0.000000   0.000000
    33  H    0.000000   0.000000
    34  H    0.000000   0.000000
    35  Cl   0.000000   0.000000
    36  Cl   0.000000   0.000000
    37  C    0.000000   0.000000
    38  H    0.000000   0.000000
    39  H    0.000000   0.000000
    40  Cl   0.000000   0.000000
    41  Cl   0.000000   0.000000
    42  C    0.000000   0.000000
    43  H    0.000000   0.000000
    44  H    0.000000   0.000000
    45  Cl   0.000000   0.000000
    46  Cl   0.000000   0.000000
    47  C    0.000000   0.000000
    48  H    0.000000   0.000000
    49  H    0.000000   0.000000
    50  Cl   0.000000   0.000000
    51  Cl   0.000000   0.000000
    52  C    0.000000   0.000000
    53  H    0.000000   0.000000
    54  H    0.000000   0.000000
    55  Cl   0.000000   0.000000
    56  Cl   0.000000   0.000000
    57  C    0.000000   0.000000
    58  H    0.000000   0.000000
    59  H    0.000000   0.000000
    60  Cl   0.000000   0.000000
    61  Cl   0.000000   0.000000
    62  C    0.000000   0.000000
    63  H    0.000000   0.000000
    64  H    0.000000   0.000000
    65  Cl   0.000000   0.000000
    66  Cl   0.000000   0.000000
    67  C    0.000000   0.000000
    68  H    0.000000   0.000000
    69  H    0.000000   0.000000
    70  Cl   0.000000   0.000000
    71  Cl   0.000000   0.000000
    72  C    0.000000   0.000000
    73  H    0.000000   0.000000
    74  H    0.000000   0.000000
    75  Cl   0.000000   0.000000
    76  Cl   0.000000   0.000000
    77  C    0.000000   0.000000
    78  H    0.000000   0.000000
    79  H    0.000000   0.000000
    80  Cl   0.000000   0.000000
    81  Cl   0.000000   0.000000
    82  C    0.000000   0.000000
    83  H    0.000000   0.000000
    84  H    0.000000   0.000000
    85  Cl   0.000000   0.000000
    86  Cl   0.000000   0.000000
    87  C    0.000000   0.000000
    88  H    0.000000   0.000000
    89  H    0.000000   0.000000
    90  Cl   0.000000   0.000000
    91  Cl   0.000000   0.000000
 Sum of Mulliken charges =  -0.00000   0.00000

 Dipole moment (field-independent basis, Debye):
    X=              0.0377    Y=             -0.0511    Z=             -0.1262  Tot=              0.1413
 N-N= 1.844990753023D+02 E-N=-2.804554609226D+02  KE=-6.322290043217D+01
 Calling FoFJK, ICntrl=      2127 FMM=F ISym2X=0 I1Cent= 0 IOpClX= 1 NMat=1 NMatS=1 NMatT=0.
 Cartesian Forces:  Max     0.033456560 RMS     0.004507687
 SvSCFP is copying densities from files   528 and   530 to   603.
 ONIOM: saving gridpoint  1
 ONIOM: restoring gridpoint  3
 ONIOM: calculating energy.
 ONIOM: gridpoint  1 method:  low   system:  model energy:     0.086113267236
 ONIOM: gridpoint  2 method:  high  system:  model energy:  -309.604886147165
 ONIOM: gridpoint  3 method:  low   system:  real  energy:    -0.403849977168

 Normal termination of Gaussian 16 at Fri Jul 12 22:46:27 2024.
