 Gaussian 16, Revision C.01,
 Gaussian 16:  ES64L-G16RevC.01  3-Jul-2019

 ----------------------------------------------------------------------
 # scf=(xqc,maxcycle=64) force guess=read oniom(td/b3lyp/em=gd3bj/6-31g
 (d):pm6) nosymm
 ----------------------------------------------------------------------

 ----------
 Title Card
 ----------
 Symbolic Z-matrix:
 Charge =  0 Multiplicity = 1 for low   level calculation on real  system.
 Charge =  0 Multiplicity = 1 for high  level calculation on model system.
 Charge =  0 Multiplicity = 1 for low   level calculation on model system.

                          Input orientation:
 ---------------------------------------------------------------------
 Center     Atomic      Atomic             Coordinates (Angstroms)
 Number     Number       Type             X           Y           Z
 ---------------------------------------------------------------------
      1          6           0        0.551806   -0.175495   -0.179194
      2          6           0       -0.087036   -1.293680    0.417649
      3          6           0       -0.273183    0.876966   -0.654745
      4          6           0       -1.458491   -1.358188    0.525254
      5          1           0        0.534963   -2.107760    0.786019
      6          6           0        1.971428   -0.144071   -0.310011
      7          6           0       -1.650432    0.813162   -0.517796
      8          1           0        0.180077    1.744483   -1.128404
      9          6           0       -2.257886   -0.304995    0.055939
     10          1           0       -1.919713   -2.229927    0.981726
     11          6           0        2.686473    0.897809   -1.002124
     12          1           0        2.528150   -0.989681    0.099292
     13          1           0       -2.263671    1.642342   -0.866093
     14          1           0       -3.340484   -0.364627    0.132073
     15          1           0        3.628866    1.291539   -0.628580
     16          1           0        2.339581    1.287766   -1.957958
     17          6           0        4.978268    0.556437    1.991502
     18          1           0        5.262352    1.144220    1.093378
     19          1           0        3.981612    0.863659    2.371471
     20         17           0        6.190883    0.772489    3.251769
     21         17           0        4.935724   -1.170184    1.570693
     22          6           0        5.723769   -1.065860   -1.561690
     23          1           0        4.647102   -1.118661   -1.292146
     24          1           0        6.337967   -1.665375   -0.858724
     25         17           0        6.266279    0.621890   -1.520862
     26         17           0        5.955212   -1.655019   -3.211712
     27          6           0        2.110790    3.182992    1.545239
     28          1           0        1.842105    2.142680    1.256612
     29          1           0        1.361293    3.904180    1.153089
     30         17           0        3.716632    3.584999    0.912039
     31         17           0        2.204022    3.314364    3.308838
     32          6           0       -2.253696    0.810071    3.489478
     33          1           0       -1.890418   -0.238363    3.527605
     34          1           0       -2.206123    1.287935    4.490956
     35         17           0       -3.923799    0.833903    2.896915
     36         17           0       -1.269240    1.728749    2.337633
     37          6           0       -1.044036    4.552846    4.570057
     38          1           0       -0.373977    5.426988    4.690726
     39          1           0       -0.879685    4.066677    3.584940
     40         17           0       -2.727861    5.057359    4.718163
     41         17           0       -0.722611    3.382656    5.868686
     42          6           0        4.434228    1.077279   -4.441551
     43          1           0        3.882101    0.261749   -3.926956
     44          1           0        5.529880    0.909091   -4.372793
     45         17           0        4.030778    2.639250   -3.698239
     46         17           0        3.934467    1.165090   -6.134777
     47          6           0       -5.426824    1.960952   -0.386599
     48          1           0       -6.321088    1.383440   -0.077534
     49          1           0       -4.640072    1.925490    0.396879
     50         17           0       -5.889214    3.643162   -0.682343
     51         17           0       -4.800891    1.292611   -1.900478
     52          6           0       -1.593551    0.985763   -4.092806
     53          1           0       -1.926130    1.299684   -5.103564
     54          1           0       -2.145842    1.533072   -3.297490
     55         17           0        0.146214    1.303624   -3.924176
     56         17           0       -1.836154   -0.754776   -3.898990
     57          6           0       -1.416039    5.895859    0.755561
     58          1           0       -1.052580    6.124109   -0.270158
     59          1           0       -2.294854    6.520587    1.018031
     60         17           0       -0.107125    6.195884    1.914171
     61         17           0       -1.847508    4.180437    0.886074
     62          6           0        1.108591    0.333879    4.946817
     63          1           0        0.731406    1.335541    4.648605
     64          1           0        1.955711    0.423804    5.656124
     65         17           0        1.629783   -0.556328    3.510636
     66         17           0       -0.200035   -0.585185    5.707581
     67          6           0        1.066524   -2.169810   -3.028857
     68          1           0        0.191499   -2.765216   -3.356228
     69          1           0        0.746137   -1.163067   -2.680143
     70         17           0        2.212871   -2.010557   -4.365546
     71         17           0        1.900500   -3.022265   -1.715705
     72          6           0        1.871786    3.925763   -5.946120
     73          1           0        2.842054    3.815663   -6.472459
     74          1           0        1.776653    3.157598   -5.151652
     75         17           0        1.769820    5.545588   -5.227623
     76         17           0        0.536993    3.770310   -7.090399
     77          6           0       -1.517148    4.633912   -3.681349
     78          1           0       -0.533745    4.239383   -4.012557
     79          1           0       -1.537898    5.741480   -3.747760
     80         17           0       -2.807845    3.955749   -4.682766
     81         17           0       -1.824044    4.133768   -2.004968
     82          6           0        2.152785    5.976529   -1.624348
     83          1           0        2.769336    5.935635   -2.545529
     84          1           0        2.790850    5.940499   -0.717843
     85         17           0        1.182825    7.454377   -1.622578
     86         17           0        1.017160    4.613635   -1.609957
     87          6           0       -4.377211    6.883899   -1.686133
     88          1           0       -5.349505    6.941794   -2.215472
     89          1           0       -4.080650    5.825237   -1.523671
     90         17           0       -3.139670    7.717629   -2.638334
     91         17           0       -4.501405    7.715034   -0.130043
 ---------------------------------------------------------------------

 SCF Done:  E(UPM6) = -0.403896306684     A.U. after   12 cycles
 SCF Done:  E(UB3LYP) =  -309.636342365     A.U. after    9 cycles

 Excitation energies and oscillator strengths:

 Excited state symmetry could not be determined.
 Excited State   1:  3.000-?Sym    0.8583 eV 1444.46 nm  f=0.0000  <S**2>=2.000
     26A -> 29A       -0.14556
     26A -> 31A       -0.12834
     28A -> 29A        0.78499
     28A -> 31A        0.12763
     26B -> 29B        0.14556
     26B -> 31B        0.12834
     28B -> 29B       -0.78499
     28B -> 31B       -0.12763
     28A <- 29A        0.39081
     28B <- 29B       -0.39081
 This state for optimization and/or second-order correction.
 Total Energy, E(TD-HF/TD-DFT) =  -309.604798814
 Copying the excited state density for this state as the 1-particle RhoCI density.

 Excited state symmetry could not be determined.
 Excited State   2:  3.000-?Sym    3.7336 eV  332.08 nm  f=0.0000  <S**2>=2.000
     26A -> 29A       -0.45601
     27A -> 29A        0.29708
     27A -> 30A       -0.27337
     28A -> 31A        0.31843
     26B -> 29B        0.45601
     27B -> 29B       -0.29708
     27B -> 30B        0.27337
     28B -> 31B       -0.31843

 Excited state symmetry could not be determined.
 Excited State   3:  3.000-?Sym    3.8705 eV  320.33 nm  f=0.0000  <S**2>=2.000
     26A -> 29A       -0.23639
     27A -> 29A       -0.54326
     27A -> 30A       -0.11237
     28A -> 30A       -0.31472
     28A -> 31A        0.15051
     26B -> 29B        0.23639
     27B -> 29B        0.54326
     27B -> 30B        0.11237
     28B -> 30B        0.31472
     28B -> 31B       -0.15051

 SCF Done:  E(UPM6) =  0.861419719858E-01 A.U. after   16 cycles

 Alpha  occ. eigenvalues --   -1.09764  -1.00163  -0.95863  -0.90527  -0.81193
 Alpha  occ. eigenvalues --   -0.77834  -0.71380  -0.63766  -0.58673  -0.56634
 Alpha  occ. eigenvalues --   -0.54031  -0.52319  -0.50775  -0.49748  -0.48183
 Alpha  occ. eigenvalues --   -0.44844  -0.43192  -0.39585  -0.36800  -0.32075
 Alpha virt. eigenvalues --    0.00639   0.01821   0.04432   0.10007   0.15560
 Alpha virt. eigenvalues --    0.15670   0.17684   0.18312   0.18548   0.19251
 Alpha virt. eigenvalues --    0.19823   0.20421   0.21139   0.21558   0.22345

  Beta  occ. eigenvalues --   -1.09703  -1.00085  -0.95815  -0.90664  -0.81231
  Beta  occ. eigenvalues --   -0.77840  -0.71474  -0.63589  -0.58584  -0.56699
  Beta  occ. eigenvalues --   -0.54170  -0.52277  -0.50785  -0.49543  -0.48034
  Beta  occ. eigenvalues --   -0.44722  -0.43198  -0.38743  -0.36163  -0.34115
  Beta virt. eigenvalues --   -0.01184   0.02414   0.05207   0.10535   0.15501
  Beta virt. eigenvalues --    0.15835   0.17661   0.18386   0.18619   0.19257
  Beta virt. eigenvalues --    0.19880   0.20611   0.21088   0.21500   0.22286

 Mulliken charges and spin densities:
               1          2
     1  C    0.030087  -0.395686
     2  C   -0.171948   0.382948
     3  C   -0.157968   0.393925
     4  C   -0.135808  -0.323090
     5  H    0.147542  -0.013423
     6  C   -0.150591   0.708548
     7  C   -0.141664  -0.324738
     8  H    0.150944  -0.013520
     9  C   -0.146346   0.385593
    10  H    0.144426   0.011279
    11  C   -0.309385  -0.847380
    12  H    0.149361  -0.033976
    13  H    0.144684   0.011375
    14  H    0.144998  -0.013272
    15  H    0.150105   0.034900
    16  H    0.151561   0.036517
    17  C    0.000000   0.000000
    18  H    0.000000   0.000000
    19  H    0.000000   0.000000
    20  Cl   0.000000   0.000000
    21  Cl   0.000000   0.000000
    22  C    0.000000   0.000000
    23  H    0.000000   0.000000
    24  H    0.000000   0.000000
    25  Cl   0.000000   0.000000
    26  Cl   0.000000   0.000000
    27  C    0.000000   0.000000
    28  H    0.000000   0.000000
    29  H    0.000000   0.000000
    30  Cl   0.000000   0.000000
    31  Cl   0.000000   0.000000
    32  C    0.000000   0.000000
    33  H    0.000000   0.000000
    34  H    0.000000   0.000000
    35  Cl   0.000000   0.000000
    36  Cl   0.000000   0.000000
    37  C    0.000000   0.000000
    38  H    0.000000   0.000000
    39  H    0.000000   0.000000
    40  Cl   0.000000   0.000000
    41  Cl   0.000000   0.000000
    42  C    0.000000   0.000000
    43  H    0.000000   0.000000
    44  H    0.000000   0.000000
    45  Cl   0.000000   0.000000
    46  Cl   0.000000   0.000000
    47  C    0.000000   0.000000
    48  H    0.000000   0.000000
    49  H    0.000000   0.000000
    50  Cl   0.000000   0.000000
    51  Cl   0.000000   0.000000
    52  C    0.000000   0.000000
    53  H    0.000000   0.000000
    54  H    0.000000   0.000000
    55  Cl   0.000000   0.000000
    56  Cl   0.000000   0.000000
    57  C    0.000000   0.000000
    58  H    0.000000   0.000000
    59  H    0.000000   0.000000
    60  Cl   0.000000   0.000000
    61  Cl   0.000000   0.000000
    62  C    0.000000   0.000000
    63  H    0.000000   0.000000
    64  H    0.000000   0.000000
    65  Cl   0.000000   0.000000
    66  Cl   0.000000   0.000000
    67  C    0.000000   0.000000
    68  H    0.000000   0.000000
    69  H    0.000000   0.000000
    70  Cl   0.000000   0.000000
    71  Cl   0.000000   0.000000
    72  C    0.000000   0.000000
    73  H    0.000000   0.000000
    74  H    0.000000   0.000000
    75  Cl   0.000000   0.000000
    76  Cl   0.000000   0.000000
    77  C    0.000000   0.000000
    78  H    0.000000   0.000000
    79  H    0.000000   0.000000
    80  Cl   0.000000   0.000000
    81  Cl   0.000000   0.000000
    82  C    0.000000   0.000000
    83  H    0.000000   0.000000
    84  H    0.000000   0.000000
    85  Cl   0.000000   0.000000
    86  Cl   0.000000   0.000000
    87  C    0.000000   0.000000
    88  H    0.000000   0.000000
    89  H    0.000000   0.000000
    90  Cl   0.000000   0.000000
    91  Cl   0.000000   0.000000
 Sum of Mulliken charges =  -0.00000   0.00000

 Dipole moment (field-independent basis, Debye):
    X=              0.0351    Y=             -0.0496    Z=             -0.1235  Tot=              0.1376
 N-N= 1.845116989771D+02 E-N=-2.804794674312D+02  KE=-6.322379399405D+01
 Calling FoFJK, ICntrl=      2127 FMM=F ISym2X=0 I1Cent= 0 IOpClX= 1 NMat=1 NMatS=1 NMatT=0.
 Cartesian Forces:  Max     0.033038175 RMS     0.004544991
 SvSCFP is copying densities from files   528 and   530 to   603.
 ONIOM: saving gridpoint  1
 ONIOM: restoring gridpoint  3
 ONIOM: calculating energy.
 ONIOM: gridpoint  1 method:  low   system:  model energy:     0.086141971986
 ONIOM: gridpoint  2 method:  high  system:  model energy:  -309.604798813697
 ONIOM: gridpoint  3 method:  low   system:  real  energy:    -0.403896306684

 Normal termination of Gaussian 16 at Fri Jul 12 22:47:27 2024.
