 Gaussian 16, Revision C.01,
 Gaussian 16:  ES64L-G16RevC.01  3-Jul-2019

 ----------------------------------------------------------------------
 # scf=(xqc,maxcycle=64) force guess=read oniom(b3lyp/em=gd3bj/6-31g(d)
 :pm6) nosymm
 ----------------------------------------------------------------------

 ----------
 Title Card
 ----------
 Symbolic Z-matrix:
 Charge =  0 Multiplicity = 1 for low   level calculation on real  system.
 Charge =  0 Multiplicity = 3 for high  level calculation on model system.
 Charge =  0 Multiplicity = 3 for low   level calculation on model system.

                          Input orientation:
 ---------------------------------------------------------------------
 Center     Atomic      Atomic             Coordinates (Angstroms)
 Number     Number       Type             X           Y           Z
 ---------------------------------------------------------------------
      1          6           0        0.551806   -0.175495   -0.179194
      2          6           0       -0.087036   -1.293680    0.417649
      3          6           0       -0.273183    0.876966   -0.654745
      4          6           0       -1.458491   -1.358188    0.525254
      5          1           0        0.534963   -2.107760    0.786019
      6          6           0        1.971428   -0.144071   -0.310011
      7          6           0       -1.650432    0.813162   -0.517796
      8          1           0        0.180077    1.744483   -1.128404
      9          6           0       -2.257886   -0.304995    0.055939
     10          1           0       -1.919713   -2.229927    0.981726
     11          6           0        2.686473    0.897809   -1.002124
     12          1           0        2.528150   -0.989681    0.099292
     13          1           0       -2.263671    1.642342   -0.866093
     14          1           0       -3.340484   -0.364627    0.132073
     15          1           0        3.628866    1.291539   -0.628580
     16          1           0        2.339581    1.287766   -1.957958
     17          6           0        4.978268    0.556437    1.991502
     18          1           0        5.262352    1.144220    1.093378
     19          1           0        3.981612    0.863659    2.371471
     20         17           0        6.190883    0.772489    3.251769
     21         17           0        4.935724   -1.170184    1.570693
     22          6           0        5.723769   -1.065860   -1.561690
     23          1           0        4.647102   -1.118661   -1.292146
     24          1           0        6.337967   -1.665375   -0.858724
     25         17           0        6.266279    0.621890   -1.520862
     26         17           0        5.955212   -1.655019   -3.211712
     27          6           0        2.110790    3.182992    1.545239
     28          1           0        1.842105    2.142680    1.256612
     29          1           0        1.361293    3.904180    1.153089
     30         17           0        3.716632    3.584999    0.912039
     31         17           0        2.204022    3.314364    3.308838
     32          6           0       -2.253696    0.810071    3.489478
     33          1           0       -1.890418   -0.238363    3.527605
     34          1           0       -2.206123    1.287935    4.490956
     35         17           0       -3.923799    0.833903    2.896915
     36         17           0       -1.269240    1.728749    2.337633
     37          6           0       -1.044036    4.552846    4.570057
     38          1           0       -0.373977    5.426988    4.690726
     39          1           0       -0.879685    4.066677    3.584940
     40         17           0       -2.727861    5.057359    4.718163
     41         17           0       -0.722611    3.382656    5.868686
     42          6           0        4.434228    1.077279   -4.441551
     43          1           0        3.882101    0.261749   -3.926956
     44          1           0        5.529880    0.909091   -4.372793
     45         17           0        4.030778    2.639250   -3.698239
     46         17           0        3.934467    1.165090   -6.134777
     47          6           0       -5.426824    1.960952   -0.386599
     48          1           0       -6.321088    1.383440   -0.077534
     49          1           0       -4.640072    1.925490    0.396879
     50         17           0       -5.889214    3.643162   -0.682343
     51         17           0       -4.800891    1.292611   -1.900478
     52          6           0       -1.593551    0.985763   -4.092806
     53          1           0       -1.926130    1.299684   -5.103564
     54          1           0       -2.145842    1.533072   -3.297490
     55         17           0        0.146214    1.303624   -3.924176
     56         17           0       -1.836154   -0.754776   -3.898990
     57          6           0       -1.416039    5.895859    0.755561
     58          1           0       -1.052580    6.124109   -0.270158
     59          1           0       -2.294854    6.520587    1.018031
     60         17           0       -0.107125    6.195884    1.914171
     61         17           0       -1.847508    4.180437    0.886074
     62          6           0        1.108591    0.333879    4.946817
     63          1           0        0.731406    1.335541    4.648605
     64          1           0        1.955711    0.423804    5.656124
     65         17           0        1.629783   -0.556328    3.510636
     66         17           0       -0.200035   -0.585185    5.707581
     67          6           0        1.066524   -2.169810   -3.028857
     68          1           0        0.191499   -2.765216   -3.356228
     69          1           0        0.746137   -1.163067   -2.680143
     70         17           0        2.212871   -2.010557   -4.365546
     71         17           0        1.900500   -3.022265   -1.715705
     72          6           0        1.871786    3.925763   -5.946120
     73          1           0        2.842054    3.815663   -6.472459
     74          1           0        1.776653    3.157598   -5.151652
     75         17           0        1.769820    5.545588   -5.227623
     76         17           0        0.536993    3.770310   -7.090399
     77          6           0       -1.517148    4.633912   -3.681349
     78          1           0       -0.533745    4.239383   -4.012557
     79          1           0       -1.537898    5.741480   -3.747760
     80         17           0       -2.807845    3.955749   -4.682766
     81         17           0       -1.824044    4.133768   -2.004968
     82          6           0        2.152785    5.976529   -1.624348
     83          1           0        2.769336    5.935635   -2.545529
     84          1           0        2.790850    5.940499   -0.717843
     85         17           0        1.182825    7.454377   -1.622578
     86         17           0        1.017160    4.613635   -1.609957
     87          6           0       -4.377211    6.883899   -1.686133
     88          1           0       -5.349505    6.941794   -2.215472
     89          1           0       -4.080650    5.825237   -1.523671
     90         17           0       -3.139670    7.717629   -2.638334
     91         17           0       -4.501405    7.715034   -0.130043
 ---------------------------------------------------------------------

 SCF Done:  E(UPM6) = -0.403896306684     A.U. after   12 cycles
 SCF Done:  E(UB3LYP) =  -309.579039520     A.U. after   11 cycles
 SCF Done:  E(UPM6) =  0.111504768470     A.U. after   15 cycles

 Alpha  occ. eigenvalues --   -1.09821  -1.00350  -0.95916  -0.90971  -0.81593
 Alpha  occ. eigenvalues --   -0.77958  -0.71754  -0.63950  -0.58929  -0.56849
 Alpha  occ. eigenvalues --   -0.54576  -0.52384  -0.51334  -0.50331  -0.48606
 Alpha  occ. eigenvalues --   -0.45095  -0.43319  -0.40889  -0.37172  -0.35897
 Alpha  occ. eigenvalues --   -0.29957
 Alpha virt. eigenvalues --    0.01880   0.02560   0.09675   0.15186   0.15629
 Alpha virt. eigenvalues --    0.17165   0.18202   0.18344   0.18951   0.19641
 Alpha virt. eigenvalues --    0.20338   0.20887   0.21470   0.22046   0.22274

  Beta  occ. eigenvalues --   -1.09692  -0.99683  -0.95810  -0.89911  -0.80896
  Beta  occ. eigenvalues --   -0.77730  -0.71056  -0.63352  -0.58288  -0.56474
  Beta  occ. eigenvalues --   -0.53615  -0.52258  -0.50100  -0.48891  -0.47636
  Beta  occ. eigenvalues --   -0.44565  -0.43086  -0.36820  -0.36279
  Beta virt. eigenvalues --   -0.03396   0.02214   0.02707   0.07034   0.10845
  Beta virt. eigenvalues --    0.15661   0.15973   0.17892   0.18460   0.18878
  Beta virt. eigenvalues --    0.19454   0.20187   0.20681   0.21346   0.21789

 Mulliken charges and spin densities:
               1          2
     1  C    0.042020  -0.377470
     2  C   -0.173596   0.444216
     3  C   -0.160194   0.461816
     4  C   -0.134974  -0.364015
     5  H    0.148177  -0.015570
     6  C   -0.171972   0.789119
     7  C   -0.140913  -0.367476
     8  H    0.150950  -0.016257
     9  C   -0.146466   0.451318
    10  H    0.144561   0.012669
    11  C   -0.304489   1.039301
    12  H    0.152760  -0.010850
    13  H    0.144776   0.012857
    14  H    0.145185  -0.015526
    15  H    0.151510  -0.022966
    16  H    0.152665  -0.021165
    17  C    0.000000   0.000000
    18  H    0.000000   0.000000
    19  H    0.000000   0.000000
    20  Cl   0.000000   0.000000
    21  Cl   0.000000   0.000000
    22  C    0.000000   0.000000
    23  H    0.000000   0.000000
    24  H    0.000000   0.000000
    25  Cl   0.000000   0.000000
    26  Cl   0.000000   0.000000
    27  C    0.000000   0.000000
    28  H    0.000000   0.000000
    29  H    0.000000   0.000000
    30  Cl   0.000000   0.000000
    31  Cl   0.000000   0.000000
    32  C    0.000000   0.000000
    33  H    0.000000   0.000000
    34  H    0.000000   0.000000
    35  Cl   0.000000   0.000000
    36  Cl   0.000000   0.000000
    37  C    0.000000   0.000000
    38  H    0.000000   0.000000
    39  H    0.000000   0.000000
    40  Cl   0.000000   0.000000
    41  Cl   0.000000   0.000000
    42  C    0.000000   0.000000
    43  H    0.000000   0.000000
    44  H    0.000000   0.000000
    45  Cl   0.000000   0.000000
    46  Cl   0.000000   0.000000
    47  C    0.000000   0.000000
    48  H    0.000000   0.000000
    49  H    0.000000   0.000000
    50  Cl   0.000000   0.000000
    51  Cl   0.000000   0.000000
    52  C    0.000000   0.000000
    53  H    0.000000   0.000000
    54  H    0.000000   0.000000
    55  Cl   0.000000   0.000000
    56  Cl   0.000000   0.000000
    57  C    0.000000   0.000000
    58  H    0.000000   0.000000
    59  H    0.000000   0.000000
    60  Cl   0.000000   0.000000
    61  Cl   0.000000   0.000000
    62  C    0.000000   0.000000
    63  H    0.000000   0.000000
    64  H    0.000000   0.000000
    65  Cl   0.000000   0.000000
    66  Cl   0.000000   0.000000
    67  C    0.000000   0.000000
    68  H    0.000000   0.000000
    69  H    0.000000   0.000000
    70  Cl   0.000000   0.000000
    71  Cl   0.000000   0.000000
    72  C    0.000000   0.000000
    73  H    0.000000   0.000000
    74  H    0.000000   0.000000
    75  Cl   0.000000   0.000000
    76  Cl   0.000000   0.000000
    77  C    0.000000   0.000000
    78  H    0.000000   0.000000
    79  H    0.000000   0.000000
    80  Cl   0.000000   0.000000
    81  Cl   0.000000   0.000000
    82  C    0.000000   0.000000
    83  H    0.000000   0.000000
    84  H    0.000000   0.000000
    85  Cl   0.000000   0.000000
    86  Cl   0.000000   0.000000
    87  C    0.000000   0.000000
    88  H    0.000000   0.000000
    89  H    0.000000   0.000000
    90  Cl   0.000000   0.000000
    91  Cl   0.000000   0.000000
 Sum of Mulliken charges =   0.00000   2.00000

 Dipole moment (field-independent basis, Debye):
    X=              0.0082    Y=             -0.0115    Z=             -0.0949  Tot=              0.0959
 N-N= 1.845116989771D+02 E-N=-2.804739937589D+02  KE=-6.318845883314D+01
 Calling FoFJK, ICntrl=      2127 FMM=F ISym2X=0 I1Cent= 0 IOpClX= 1 NMat=1 NMatS=1 NMatT=0.
 Cartesian Forces:  Max     0.021281229 RMS     0.002826323
 SvSCFP is copying densities from files   528 and   530 to   603.
 ONIOM: saving gridpoint  1
 ONIOM: restoring gridpoint  3
 ONIOM: calculating energy.
 ONIOM: gridpoint  1 method:  low   system:  model energy:     0.111504768470
 ONIOM: gridpoint  2 method:  high  system:  model energy:  -309.579039519815
 ONIOM: gridpoint  3 method:  low   system:  real  energy:    -0.403896306684

 Normal termination of Gaussian 16 at Fri Jul 12 22:46:40 2024.
