 Gaussian 16, Revision C.01,
 Gaussian 16:  ES64L-G16RevC.01  3-Jul-2019

 ----------------------------------------------------------------------
 # scf=(xqc,maxcycle=64) force guess=read oniom(td/b3lyp/em=gd3bj/6-31g
 (d):pm6) nosymm
 ----------------------------------------------------------------------

 ----------
 Title Card
 ----------
 Symbolic Z-matrix:
 Charge =  0 Multiplicity = 1 for low   level calculation on real  system.
 Charge =  0 Multiplicity = 1 for high  level calculation on model system.
 Charge =  0 Multiplicity = 1 for low   level calculation on model system.

                          Input orientation:
 ---------------------------------------------------------------------
 Center     Atomic      Atomic             Coordinates (Angstroms)
 Number     Number       Type             X           Y           Z
 ---------------------------------------------------------------------
      1          6           0        0.552219   -0.175701   -0.179876
      2          6           0       -0.086365   -1.294036    0.416479
      3          6           0       -0.272106    0.877640   -0.654385
      4          6           0       -1.458049   -1.358169    0.525361
      5          1           0        0.535883   -2.108088    0.783769
      6          6           0        1.972047   -0.145191   -0.309419
      7          6           0       -1.649571    0.813981   -0.517547
      8          1           0        0.181365    1.746556   -1.125456
      9          6           0       -2.257171   -0.304575    0.055748
     10          1           0       -1.918691   -2.228231    0.984637
     11          6           0        2.686380    0.895981   -1.002872
     12          1           0        2.528197   -0.990823    0.101176
     13          1           0       -2.263196    1.643774   -0.863187
     14          1           0       -3.339478   -0.363616    0.132770
     15          1           0        3.625972    1.294332   -0.627895
     16          1           0        2.336012    1.286919   -1.956882
     17          6           0        4.977665    0.556450    1.991881
     18          1           0        5.261654    1.144614    1.093974
     19          1           0        3.980888    0.863242    2.371877
     20         17           0        6.190106    0.772417    3.252348
     21         17           0        4.935763   -1.170051    1.570549
     22          6           0        5.724628   -1.066301   -1.561515
     23          1           0        4.647762   -1.117817   -1.292554
     24          1           0        6.337781   -1.666854   -0.858520
     25         17           0        6.268954    0.620850   -1.519809
     26         17           0        5.956094   -1.655148   -3.211658
     27          6           0        2.110353    3.183216    1.544853
     28          1           0        1.840536    2.143131    1.256386
     29          1           0        1.361121    3.905212    1.153577
     30         17           0        3.715926    3.583930    0.910017
     31         17           0        2.205297    3.314169    3.308388
     32          6           0       -2.254784    0.810812    3.487334
     33          1           0       -1.889805   -0.237060    3.524499
     34          1           0       -2.205076    1.288748    4.488656
     35         17           0       -3.926384    0.832540    2.899185
     36         17           0       -1.274063    1.730448    2.333205
     37          6           0       -1.044944    4.553965    4.571776
     38          1           0       -0.375178    5.428248    4.693208
     39          1           0       -0.879668    4.067833    3.586794
     40         17           0       -2.728944    5.058326    4.718363
     41         17           0       -0.724378    3.383495    5.870339
     42          6           0        4.434272    1.078978   -4.442393
     43          1           0        3.881183    0.264563   -3.927106
     44          1           0        5.529735    0.909610   -4.373418
     45         17           0        4.032247    2.641858   -3.700220
     46         17           0        3.934829    1.165849   -6.135754
     47          6           0       -5.426556    1.962350   -0.387006
     48          1           0       -6.320918    1.386416   -0.075277
     49          1           0       -4.637867    1.926133    0.394503
     50         17           0       -5.887346    3.645047   -0.682535
     51         17           0       -4.805272    1.292200   -1.901988
     52          6           0       -1.593121    0.985003   -4.091796
     53          1           0       -1.924941    1.299330   -5.102674
     54          1           0       -2.146137    1.532075   -3.296821
     55         17           0        0.146482    1.303138   -3.921805
     56         17           0       -1.835755   -0.755579   -3.898757
     57          6           0       -1.414622    5.895377    0.756525
     58          1           0       -1.051246    6.123296   -0.269279
     59          1           0       -2.294151    6.519261    1.018693
     60         17           0       -0.106232    6.196868    1.915366
     61         17           0       -1.844862    4.179766    0.887110
     62          6           0        1.108908    0.333377    4.946015
     63          1           0        0.731810    1.334637    4.646416
     64          1           0        1.955766    0.424292    5.655539
     65         17           0        1.630744   -0.558649    3.511211
     66         17           0       -0.200036   -0.584780    5.707272
     67          6           0        1.066645   -2.169905   -3.028707
     68          1           0        0.191044   -2.764544   -3.355951
     69          1           0        0.746762   -1.163402   -2.678849
     70         17           0        2.212221   -2.009711   -4.365953
     71         17           0        1.901376   -3.024020   -1.717088
     72          6           0        1.871628    3.925997   -5.947237
     73          1           0        2.841872    3.815947   -6.473709
     74          1           0        1.776707    3.158029   -5.152511
     75         17           0        1.769426    5.546020   -5.229134
     76         17           0        0.536746    3.769887   -7.091363
     77          6           0       -1.518592    4.631905   -3.681786
     78          1           0       -0.535654    4.235228   -4.011914
     79          1           0       -1.537191    5.739719   -3.745269
     80         17           0       -2.808456    3.959231   -4.687733
     81         17           0       -1.827992    4.129494   -2.006461
     82          6           0        2.153834    5.975567   -1.624175
     83          1           0        2.770530    5.934885   -2.545325
     84          1           0        2.792645    5.939930   -0.718100
     85         17           0        1.182822    7.452713   -1.622109
     86         17           0        1.018177    4.612399   -1.609638
     87          6           0       -4.377250    6.883024   -1.686180
     88          1           0       -5.349520    6.940903   -2.215580
     89          1           0       -4.079765    5.824367   -1.525446
     90         17           0       -3.140235    7.719298   -2.636804
     91         17           0       -4.502510    7.711364   -0.128690
 ---------------------------------------------------------------------

 SCF Done:  E(UPM6) = -0.404045102841     A.U. after   12 cycles
 SCF Done:  E(UB3LYP) =  -309.636391129     A.U. after    9 cycles

 Excitation energies and oscillator strengths:

 Excited state symmetry could not be determined.
 Excited State   1:  3.000-?Sym    0.8622 eV 1438.06 nm  f=0.0000  <S**2>=2.000
     26A -> 29A       -0.14539
     26A -> 31A       -0.12824
     28A -> 29A        0.78424
     28A -> 31A        0.12767
     26B -> 29B        0.14539
     26B -> 31B        0.12824
     28B -> 29B       -0.78424
     28B -> 31B       -0.12767
     28A <- 29A        0.38937
     28B <- 29B       -0.38937
 This state for optimization and/or second-order correction.
 Total Energy, E(TD-HF/TD-DFT) =  -309.604707246
 Copying the excited state density for this state as the 1-particle RhoCI density.

 Excited state symmetry could not be determined.
 Excited State   2:  3.000-?Sym    3.7331 eV  332.12 nm  f=0.0000  <S**2>=2.000
     26A -> 29A        0.45547
     27A -> 29A       -0.29750
     27A -> 30A        0.27431
     28A -> 31A       -0.31814
     26B -> 29B       -0.45547
     27B -> 29B        0.29750
     27B -> 30B       -0.27431
     28B -> 31B        0.31814

 Excited state symmetry could not be determined.
 Excited State   3:  3.000-?Sym    3.8711 eV  320.28 nm  f=0.0000  <S**2>=2.000
     26A -> 29A        0.23628
     27A -> 29A        0.54222
     27A -> 30A        0.11263
     28A -> 30A        0.31644
     28A -> 31A       -0.15047
     26B -> 29B       -0.23628
     27B -> 29B       -0.54222
     27B -> 30B       -0.11263
     28B -> 30B       -0.31644
     28B -> 31B        0.15047

 SCF Done:  E(UPM6) =  0.860854478040E-01 A.U. after   16 cycles

 Alpha  occ. eigenvalues --   -1.09760  -1.00171  -0.95864  -0.90526  -0.81199
 Alpha  occ. eigenvalues --   -0.77833  -0.71381  -0.63769  -0.58682  -0.56633
 Alpha  occ. eigenvalues --   -0.54043  -0.52324  -0.50783  -0.49736  -0.48186
 Alpha  occ. eigenvalues --   -0.44846  -0.43201  -0.39583  -0.36797  -0.32080
 Alpha virt. eigenvalues --    0.00636   0.01815   0.04430   0.10003   0.15561
 Alpha virt. eigenvalues --    0.15666   0.17686   0.18312   0.18544   0.19247
 Alpha virt. eigenvalues --    0.19818   0.20420   0.21139   0.21558   0.22346

  Beta  occ. eigenvalues --   -1.09699  -1.00093  -0.95816  -0.90663  -0.81236
  Beta  occ. eigenvalues --   -0.77840  -0.71473  -0.63593  -0.58592  -0.56699
  Beta  occ. eigenvalues --   -0.54182  -0.52282  -0.50791  -0.49532  -0.48037
  Beta  occ. eigenvalues --   -0.44725  -0.43207  -0.38742  -0.36162  -0.34116
  Beta virt. eigenvalues --   -0.01182   0.02406   0.05203   0.10530   0.15503
  Beta virt. eigenvalues --    0.15831   0.17663   0.18386   0.18615   0.19254
  Beta virt. eigenvalues --    0.19874   0.20611   0.21089   0.21501   0.22291

 Mulliken charges and spin densities:
               1          2
     1  C    0.029998  -0.395562
     2  C   -0.172013   0.383010
     3  C   -0.157955   0.393885
     4  C   -0.135681  -0.323375
     5  H    0.147526  -0.013420
     6  C   -0.150607   0.708299
     7  C   -0.141598  -0.324910
     8  H    0.150944  -0.013518
     9  C   -0.146384   0.385622
    10  H    0.144390   0.011278
    11  C   -0.309432  -0.846857
    12  H    0.149479  -0.033925
    13  H    0.144671   0.011376
    14  H    0.144946  -0.013267
    15  H    0.150224   0.034933
    16  H    0.151492   0.036431
    17  C    0.000000   0.000000
    18  H    0.000000   0.000000
    19  H    0.000000   0.000000
    20  Cl   0.000000   0.000000
    21  Cl   0.000000   0.000000
    22  C    0.000000   0.000000
    23  H    0.000000   0.000000
    24  H    0.000000   0.000000
    25  Cl   0.000000   0.000000
    26  Cl   0.000000   0.000000
    27  C    0.000000   0.000000
    28  H    0.000000   0.000000
    29  H    0.000000   0.000000
    30  Cl   0.000000   0.000000
    31  Cl   0.000000   0.000000
    32  C    0.000000   0.000000
    33  H    0.000000   0.000000
    34  H    0.000000   0.000000
    35  Cl   0.000000   0.000000
    36  Cl   0.000000   0.000000
    37  C    0.000000   0.000000
    38  H    0.000000   0.000000
    39  H    0.000000   0.000000
    40  Cl   0.000000   0.000000
    41  Cl   0.000000   0.000000
    42  C    0.000000   0.000000
    43  H    0.000000   0.000000
    44  H    0.000000   0.000000
    45  Cl   0.000000   0.000000
    46  Cl   0.000000   0.000000
    47  C    0.000000   0.000000
    48  H    0.000000   0.000000
    49  H    0.000000   0.000000
    50  Cl   0.000000   0.000000
    51  Cl   0.000000   0.000000
    52  C    0.000000   0.000000
    53  H    0.000000   0.000000
    54  H    0.000000   0.000000
    55  Cl   0.000000   0.000000
    56  Cl   0.000000   0.000000
    57  C    0.000000   0.000000
    58  H    0.000000   0.000000
    59  H    0.000000   0.000000
    60  Cl   0.000000   0.000000
    61  Cl   0.000000   0.000000
    62  C    0.000000   0.000000
    63  H    0.000000   0.000000
    64  H    0.000000   0.000000
    65  Cl   0.000000   0.000000
    66  Cl   0.000000   0.000000
    67  C    0.000000   0.000000
    68  H    0.000000   0.000000
    69  H    0.000000   0.000000
    70  Cl   0.000000   0.000000
    71  Cl   0.000000   0.000000
    72  C    0.000000   0.000000
    73  H    0.000000   0.000000
    74  H    0.000000   0.000000
    75  Cl   0.000000   0.000000
    76  Cl   0.000000   0.000000
    77  C    0.000000   0.000000
    78  H    0.000000   0.000000
    79  H    0.000000   0.000000
    80  Cl   0.000000   0.000000
    81  Cl   0.000000   0.000000
    82  C    0.000000   0.000000
    83  H    0.000000   0.000000
    84  H    0.000000   0.000000
    85  Cl   0.000000   0.000000
    86  Cl   0.000000   0.000000
    87  C    0.000000   0.000000
    88  H    0.000000   0.000000
    89  H    0.000000   0.000000
    90  Cl   0.000000   0.000000
    91  Cl   0.000000   0.000000
 Sum of Mulliken charges =   0.00000   0.00000

 Dipole moment (field-independent basis, Debye):
    X=              0.0306    Y=             -0.0412    Z=             -0.1133  Tot=              0.1244
 N-N= 1.845201798553D+02 E-N=-2.804953207657D+02  KE=-6.322410789599D+01
 Calling FoFJK, ICntrl=      2127 FMM=F ISym2X=0 I1Cent= 0 IOpClX= 1 NMat=1 NMatS=1 NMatT=0.
 Cartesian Forces:  Max     0.032901870 RMS     0.004523615
 SvSCFP is copying densities from files   528 and   530 to   603.
 ONIOM: saving gridpoint  1
 ONIOM: restoring gridpoint  3
 ONIOM: calculating energy.
 ONIOM: gridpoint  1 method:  low   system:  model energy:     0.086085447804
 ONIOM: gridpoint  2 method:  high  system:  model energy:  -309.604707246436
 ONIOM: gridpoint  3 method:  low   system:  real  energy:    -0.404045102841

 Normal termination of Gaussian 16 at Fri Jul 12 22:48:29 2024.
