 Gaussian 16, Revision C.01,
 Gaussian 16:  ES64L-G16RevC.01  3-Jul-2019

 ----------------------------------------------------------------------
 # scf=(xqc,maxcycle=64) force guess=read oniom(b3lyp/em=gd3bj/6-31g(d)
 :pm6) nosymm
 ----------------------------------------------------------------------

 ----------
 Title Card
 ----------
 Symbolic Z-matrix:
 Charge =  0 Multiplicity = 1 for low   level calculation on real  system.
 Charge =  0 Multiplicity = 3 for high  level calculation on model system.
 Charge =  0 Multiplicity = 3 for low   level calculation on model system.

                          Input orientation:
 ---------------------------------------------------------------------
 Center     Atomic      Atomic             Coordinates (Angstroms)
 Number     Number       Type             X           Y           Z
 ---------------------------------------------------------------------
      1          6           0        0.552219   -0.175701   -0.179876
      2          6           0       -0.086365   -1.294036    0.416479
      3          6           0       -0.272106    0.877640   -0.654385
      4          6           0       -1.458049   -1.358169    0.525361
      5          1           0        0.535883   -2.108088    0.783769
      6          6           0        1.972047   -0.145191   -0.309419
      7          6           0       -1.649571    0.813981   -0.517547
      8          1           0        0.181365    1.746556   -1.125456
      9          6           0       -2.257171   -0.304575    0.055748
     10          1           0       -1.918691   -2.228231    0.984637
     11          6           0        2.686380    0.895981   -1.002872
     12          1           0        2.528197   -0.990823    0.101176
     13          1           0       -2.263196    1.643774   -0.863187
     14          1           0       -3.339478   -0.363616    0.132770
     15          1           0        3.625972    1.294332   -0.627895
     16          1           0        2.336012    1.286919   -1.956882
     17          6           0        4.977665    0.556450    1.991881
     18          1           0        5.261654    1.144614    1.093974
     19          1           0        3.980888    0.863242    2.371877
     20         17           0        6.190106    0.772417    3.252348
     21         17           0        4.935763   -1.170051    1.570549
     22          6           0        5.724628   -1.066301   -1.561515
     23          1           0        4.647762   -1.117817   -1.292554
     24          1           0        6.337781   -1.666854   -0.858520
     25         17           0        6.268954    0.620850   -1.519809
     26         17           0        5.956094   -1.655148   -3.211658
     27          6           0        2.110353    3.183216    1.544853
     28          1           0        1.840536    2.143131    1.256386
     29          1           0        1.361121    3.905212    1.153577
     30         17           0        3.715926    3.583930    0.910017
     31         17           0        2.205297    3.314169    3.308388
     32          6           0       -2.254784    0.810812    3.487334
     33          1           0       -1.889805   -0.237060    3.524499
     34          1           0       -2.205076    1.288748    4.488656
     35         17           0       -3.926384    0.832540    2.899185
     36         17           0       -1.274063    1.730448    2.333205
     37          6           0       -1.044944    4.553965    4.571776
     38          1           0       -0.375178    5.428248    4.693208
     39          1           0       -0.879668    4.067833    3.586794
     40         17           0       -2.728944    5.058326    4.718363
     41         17           0       -0.724378    3.383495    5.870339
     42          6           0        4.434272    1.078978   -4.442393
     43          1           0        3.881183    0.264563   -3.927106
     44          1           0        5.529735    0.909610   -4.373418
     45         17           0        4.032247    2.641858   -3.700220
     46         17           0        3.934829    1.165849   -6.135754
     47          6           0       -5.426556    1.962350   -0.387006
     48          1           0       -6.320918    1.386416   -0.075277
     49          1           0       -4.637867    1.926133    0.394503
     50         17           0       -5.887346    3.645047   -0.682535
     51         17           0       -4.805272    1.292200   -1.901988
     52          6           0       -1.593121    0.985003   -4.091796
     53          1           0       -1.924941    1.299330   -5.102674
     54          1           0       -2.146137    1.532075   -3.296821
     55         17           0        0.146482    1.303138   -3.921805
     56         17           0       -1.835755   -0.755579   -3.898757
     57          6           0       -1.414622    5.895377    0.756525
     58          1           0       -1.051246    6.123296   -0.269279
     59          1           0       -2.294151    6.519261    1.018693
     60         17           0       -0.106232    6.196868    1.915366
     61         17           0       -1.844862    4.179766    0.887110
     62          6           0        1.108908    0.333377    4.946015
     63          1           0        0.731810    1.334637    4.646416
     64          1           0        1.955766    0.424292    5.655539
     65         17           0        1.630744   -0.558649    3.511211
     66         17           0       -0.200036   -0.584780    5.707272
     67          6           0        1.066645   -2.169905   -3.028707
     68          1           0        0.191044   -2.764544   -3.355951
     69          1           0        0.746762   -1.163402   -2.678849
     70         17           0        2.212221   -2.009711   -4.365953
     71         17           0        1.901376   -3.024020   -1.717088
     72          6           0        1.871628    3.925997   -5.947237
     73          1           0        2.841872    3.815947   -6.473709
     74          1           0        1.776707    3.158029   -5.152511
     75         17           0        1.769426    5.546020   -5.229134
     76         17           0        0.536746    3.769887   -7.091363
     77          6           0       -1.518592    4.631905   -3.681786
     78          1           0       -0.535654    4.235228   -4.011914
     79          1           0       -1.537191    5.739719   -3.745269
     80         17           0       -2.808456    3.959231   -4.687733
     81         17           0       -1.827992    4.129494   -2.006461
     82          6           0        2.153834    5.975567   -1.624175
     83          1           0        2.770530    5.934885   -2.545325
     84          1           0        2.792645    5.939930   -0.718100
     85         17           0        1.182822    7.452713   -1.622109
     86         17           0        1.018177    4.612399   -1.609638
     87          6           0       -4.377250    6.883024   -1.686180
     88          1           0       -5.349520    6.940903   -2.215580
     89          1           0       -4.079765    5.824367   -1.525446
     90         17           0       -3.140235    7.719298   -2.636804
     91         17           0       -4.502510    7.711364   -0.128690
 ---------------------------------------------------------------------

 SCF Done:  E(UPM6) = -0.404045102841     A.U. after   12 cycles
 SCF Done:  E(UB3LYP) =  -309.579006318     A.U. after   10 cycles
 SCF Done:  E(UPM6) =  0.111484187000     A.U. after   14 cycles

 Alpha  occ. eigenvalues --   -1.09816  -1.00359  -0.95917  -0.90970  -0.81597
 Alpha  occ. eigenvalues --   -0.77959  -0.71754  -0.63953  -0.58937  -0.56849
 Alpha  occ. eigenvalues --   -0.54589  -0.52389  -0.51341  -0.50319  -0.48608
 Alpha  occ. eigenvalues --   -0.45099  -0.43326  -0.40889  -0.37170  -0.35899
 Alpha  occ. eigenvalues --   -0.29958
 Alpha virt. eigenvalues --    0.01875   0.02557   0.09671   0.15188   0.15626
 Alpha virt. eigenvalues --    0.17166   0.18199   0.18343   0.18948   0.19633
 Alpha virt. eigenvalues --    0.20337   0.20887   0.21471   0.22050   0.22274

  Beta  occ. eigenvalues --   -1.09688  -0.99691  -0.95811  -0.89911  -0.80902
  Beta  occ. eigenvalues --   -0.77729  -0.71056  -0.63355  -0.58297  -0.56473
  Beta  occ. eigenvalues --   -0.53626  -0.52263  -0.50107  -0.48881  -0.47640
  Beta  occ. eigenvalues --   -0.44567  -0.43096  -0.36821  -0.36278
  Beta virt. eigenvalues --   -0.03396   0.02213   0.02700   0.07032   0.10841
  Beta virt. eigenvalues --    0.15663   0.15969   0.17892   0.18460   0.18874
  Beta virt. eigenvalues --    0.19448   0.20184   0.20681   0.21348   0.21787

 Mulliken charges and spin densities:
               1          2
     1  C    0.041935  -0.377344
     2  C   -0.173637   0.444408
     3  C   -0.160207   0.461848
     4  C   -0.134855  -0.364389
     5  H    0.148163  -0.015570
     6  C   -0.171981   0.789363
     7  C   -0.140832  -0.367713
     8  H    0.150948  -0.016259
     9  C   -0.146510   0.451410
    10  H    0.144527   0.012671
    11  C   -0.304547   1.039281
    12  H    0.152855  -0.010935
    13  H    0.144761   0.012859
    14  H    0.145134  -0.015522
    15  H    0.151531  -0.022917
    16  H    0.152716  -0.021191
    17  C    0.000000   0.000000
    18  H    0.000000   0.000000
    19  H    0.000000   0.000000
    20  Cl   0.000000   0.000000
    21  Cl   0.000000   0.000000
    22  C    0.000000   0.000000
    23  H    0.000000   0.000000
    24  H    0.000000   0.000000
    25  Cl   0.000000   0.000000
    26  Cl   0.000000   0.000000
    27  C    0.000000   0.000000
    28  H    0.000000   0.000000
    29  H    0.000000   0.000000
    30  Cl   0.000000   0.000000
    31  Cl   0.000000   0.000000
    32  C    0.000000   0.000000
    33  H    0.000000   0.000000
    34  H    0.000000   0.000000
    35  Cl   0.000000   0.000000
    36  Cl   0.000000   0.000000
    37  C    0.000000   0.000000
    38  H    0.000000   0.000000
    39  H    0.000000   0.000000
    40  Cl   0.000000   0.000000
    41  Cl   0.000000   0.000000
    42  C    0.000000   0.000000
    43  H    0.000000   0.000000
    44  H    0.000000   0.000000
    45  Cl   0.000000   0.000000
    46  Cl   0.000000   0.000000
    47  C    0.000000   0.000000
    48  H    0.000000   0.000000
    49  H    0.000000   0.000000
    50  Cl   0.000000   0.000000
    51  Cl   0.000000   0.000000
    52  C    0.000000   0.000000
    53  H    0.000000   0.000000
    54  H    0.000000   0.000000
    55  Cl   0.000000   0.000000
    56  Cl   0.000000   0.000000
    57  C    0.000000   0.000000
    58  H    0.000000   0.000000
    59  H    0.000000   0.000000
    60  Cl   0.000000   0.000000
    61  Cl   0.000000   0.000000
    62  C    0.000000   0.000000
    63  H    0.000000   0.000000
    64  H    0.000000   0.000000
    65  Cl   0.000000   0.000000
    66  Cl   0.000000   0.000000
    67  C    0.000000   0.000000
    68  H    0.000000   0.000000
    69  H    0.000000   0.000000
    70  Cl   0.000000   0.000000
    71  Cl   0.000000   0.000000
    72  C    0.000000   0.000000
    73  H    0.000000   0.000000
    74  H    0.000000   0.000000
    75  Cl   0.000000   0.000000
    76  Cl   0.000000   0.000000
    77  C    0.000000   0.000000
    78  H    0.000000   0.000000
    79  H    0.000000   0.000000
    80  Cl   0.000000   0.000000
    81  Cl   0.000000   0.000000
    82  C    0.000000   0.000000
    83  H    0.000000   0.000000
    84  H    0.000000   0.000000
    85  Cl   0.000000   0.000000
    86  Cl   0.000000   0.000000
    87  C    0.000000   0.000000
    88  H    0.000000   0.000000
    89  H    0.000000   0.000000
    90  Cl   0.000000   0.000000
    91  Cl   0.000000   0.000000
 Sum of Mulliken charges =  -0.00000   2.00000

 Dipole moment (field-independent basis, Debye):
    X=              0.0033    Y=             -0.0026    Z=             -0.0845  Tot=              0.0846
 N-N= 1.845201798553D+02 E-N=-2.804897985006D+02  KE=-6.318868885485D+01
 Calling FoFJK, ICntrl=      2127 FMM=F ISym2X=0 I1Cent= 0 IOpClX= 1 NMat=1 NMatS=1 NMatT=0.
 Cartesian Forces:  Max     0.021376504 RMS     0.002805494
 SvSCFP is copying densities from files   528 and   530 to   603.
 ONIOM: saving gridpoint  1
 ONIOM: restoring gridpoint  3
 ONIOM: calculating energy.
 ONIOM: gridpoint  1 method:  low   system:  model energy:     0.111484187000
 ONIOM: gridpoint  2 method:  high  system:  model energy:  -309.579006318331
 ONIOM: gridpoint  3 method:  low   system:  real  energy:    -0.404045102841

 Normal termination of Gaussian 16 at Fri Jul 12 22:47:41 2024.
