 Gaussian 16, Revision C.01,
 Gaussian 16:  ES64L-G16RevC.01  3-Jul-2019

 ----------------------------------------------------------------------
 # scf=(xqc,maxcycle=64) force guess=read oniom(td/b3lyp/em=gd3bj/6-31g
 (d):pm6) nosymm
 ----------------------------------------------------------------------

 ----------
 Title Card
 ----------
 Symbolic Z-matrix:
 Charge =  0 Multiplicity = 1 for low   level calculation on real  system.
 Charge =  0 Multiplicity = 1 for high  level calculation on model system.
 Charge =  0 Multiplicity = 1 for low   level calculation on model system.

                          Input orientation:
 ---------------------------------------------------------------------
 Center     Atomic      Atomic             Coordinates (Angstroms)
 Number     Number       Type             X           Y           Z
 ---------------------------------------------------------------------
      1          6           0        0.553211   -0.175883   -0.180596
      2          6           0       -0.085899   -1.294359    0.415655
      3          6           0       -0.270402    0.878778   -0.652896
      4          6           0       -1.457284   -1.357224    0.525723
      5          1           0        0.536743   -2.109150    0.780679
      6          6           0        1.973180   -0.146167   -0.308992
      7          6           0       -1.648224    0.814866   -0.516365
      8          1           0        0.182927    1.749087   -1.121345
      9          6           0       -2.255404   -0.304438    0.056214
     10          1           0       -1.918192   -2.226656    0.988253
     11          6           0        2.685976    0.893258   -1.003493
     12          1           0        2.526920   -0.993029    0.102712
     13          1           0       -2.261752    1.645453   -0.859311
     14          1           0       -3.338272   -0.361837    0.133838
     15          1           0        3.621625    1.300110   -0.627985
     16          1           0        2.333032    1.285604   -1.955685
     17          6           0        4.976742    0.556449    1.992501
     18          1           0        5.260576    1.145165    1.094911
     19          1           0        3.979762    0.862563    2.372494
     20         17           0        6.188886    0.772376    3.253292
     21         17           0        4.935846   -1.169862    1.570330
     22          6           0        5.725929   -1.066927   -1.561274
     23          1           0        4.648792   -1.116573   -1.293141
     24          1           0        6.337427   -1.669100   -0.858229
     25         17           0        6.273017    0.619289   -1.518158
     26         17           0        5.957437   -1.655246   -3.211620
     27          6           0        2.109663    3.183551    1.544312
     28          1           0        1.837930    2.143924    1.255906
     29          1           0        1.360850    3.906693    1.154272
     30         17           0        3.714814    3.582465    0.907109
     31         17           0        2.207282    3.313788    3.307741
     32          6           0       -2.256436    0.811843    3.484165
     33          1           0       -1.889023   -0.235203    3.519652
     34          1           0       -2.203528    1.290142    4.485095
     35         17           0       -3.930252    0.830423    2.902619
     36         17           0       -1.281157    1.732888    2.326774
     37          6           0       -1.046361    4.555673    4.574428
     38          1           0       -0.377067    5.430184    4.697049
     39          1           0       -0.879640    4.069665    3.589631
     40         17           0       -2.730629    5.059779    4.718726
     41         17           0       -0.727117    3.384644    5.872764
     42          6           0        4.434264    1.081596   -4.443620
     43          1           0        3.879781    0.268762   -3.927384
     44          1           0        5.529432    0.910487   -4.374346
     45         17           0        4.034475    2.645835   -3.703127
     46         17           0        3.935417    1.167093   -6.137206
     47          6           0       -5.426205    1.964545   -0.387582
     48          1           0       -6.320637    1.390953   -0.071672
     49          1           0       -4.634427    1.927169    0.390703
     50         17           0       -5.884258    3.648042   -0.682868
     51         17           0       -4.811777    1.291647   -1.904111
     52          6           0       -1.592461    0.983871   -4.090262
     53          1           0       -1.923158    1.298883   -5.101289
     54          1           0       -2.146641    1.530554   -3.295840
     55         17           0        0.146870    1.302473   -3.918118
     56         17           0       -1.835119   -0.756767   -3.898350
     57          6           0       -1.412361    5.894708    0.757896
     58          1           0       -1.049201    6.122004   -0.268076
     59          1           0       -2.292887    6.517326    1.019721
     60         17           0       -0.104939    6.198398    1.917259
     61         17           0       -1.840981    4.178868    0.888232
     62          6           0        1.109322    0.332635    4.944755
     63          1           0        0.732463    1.333300    4.642993
     64          1           0        1.955778    0.425034    5.654596
     65         17           0        1.632149   -0.562091    3.512016
     66         17           0       -0.200113   -0.584106    5.706766
     67          6           0        1.066867   -2.170157   -3.028456
     68          1           0        0.190433   -2.763584   -3.355727
     69          1           0        0.748017   -1.164017   -2.676700
     70         17           0        2.211029   -2.008261   -4.366699
     71         17           0        1.902658   -3.026530   -1.718974
     72          6           0        1.871402    3.926349   -5.949021
     73          1           0        2.841639    3.816370   -6.475650
     74          1           0        1.776729    3.158727   -5.153884
     75         17           0        1.768684    5.546601   -5.231388
     76         17           0        0.536329    3.769206   -7.092835
     77          6           0       -1.520349    4.628893   -3.682419
     78          1           0       -0.538096    4.229391   -4.011323
     79          1           0       -1.535634    5.737020   -3.741657
     80         17           0       -2.809578    3.964086   -4.694089
     81         17           0       -1.834266    4.123094   -2.008841
     82          6           0        2.155211    5.974086   -1.624027
     83          1           0        2.771891    5.933529   -2.545275
     84          1           0        2.794739    5.938651   -0.718353
     85         17           0        1.183205    7.450519   -1.621386
     86         17           0        1.019817    4.610277   -1.609227
     87          6           0       -4.377309    6.881652   -1.686254
     88          1           0       -5.349521    6.939471   -2.215750
     89          1           0       -4.078427    5.823010   -1.528250
     90         17           0       -3.141016    7.721742   -2.634401
     91         17           0       -4.504225    7.705559   -0.126564
 ---------------------------------------------------------------------

 SCF Done:  E(UPM6) = -0.404305672495     A.U. after   12 cycles
 SCF Done:  E(UB3LYP) =  -309.636418360     A.U. after    9 cycles

 Excitation energies and oscillator strengths:

 Excited state symmetry could not be determined.
 Excited State   1:  3.000-?Sym    0.8687 eV 1427.29 nm  f=0.0000  <S**2>=2.000
     26A -> 29A        0.14499
     26A -> 31A        0.12779
     28A -> 29A       -0.78297
     28A -> 31A       -0.12729
     26B -> 29B       -0.14499
     26B -> 31B       -0.12779
     28B -> 29B        0.78297
     28B -> 31B        0.12729
     28A <- 29A       -0.38675
     28B <- 29B        0.38675
 This state for optimization and/or second-order correction.
 Total Energy, E(TD-HF/TD-DFT) =  -309.604495347
 Copying the excited state density for this state as the 1-particle RhoCI density.

 Excited state symmetry could not be determined.
 Excited State   2:  3.000-?Sym    3.7373 eV  331.74 nm  f=0.0000  <S**2>=2.000
     26A -> 29A       -0.45894
     27A -> 29A        0.28995
     27A -> 30A       -0.27683
     28A -> 31A        0.31959
     26B -> 29B        0.45894
     27B -> 29B       -0.28995
     27B -> 30B        0.27683
     28B -> 31B       -0.31959

 Excited state symmetry could not be determined.
 Excited State   3:  3.000-?Sym    3.8700 eV  320.37 nm  f=0.0000  <S**2>=2.000
     26A -> 29A        0.22848
     27A -> 29A        0.54595
     27A -> 30A        0.10981
     28A -> 30A        0.31932
     28A -> 31A       -0.14529
     26B -> 29B       -0.22848
     27B -> 29B       -0.54595
     27B -> 30B       -0.10981
     28B -> 30B       -0.31932
     28B -> 31B        0.14529

 SCF Done:  E(UPM6) =  0.860144857475E-01 A.U. after   16 cycles

 Alpha  occ. eigenvalues --   -1.09773  -1.00205  -0.95865  -0.90543  -0.81207
 Alpha  occ. eigenvalues --   -0.77836  -0.71383  -0.63770  -0.58683  -0.56635
 Alpha  occ. eigenvalues --   -0.54048  -0.52323  -0.50803  -0.49735  -0.48189
 Alpha  occ. eigenvalues --   -0.44841  -0.43204  -0.39578  -0.36795  -0.32080
 Alpha virt. eigenvalues --    0.00632   0.01811   0.04433   0.10004   0.15563
 Alpha virt. eigenvalues --    0.15667   0.17701   0.18315   0.18547   0.19258
 Alpha virt. eigenvalues --    0.19822   0.20421   0.21135   0.21556   0.22340

  Beta  occ. eigenvalues --   -1.09713  -1.00128  -0.95817  -0.90681  -0.81242
  Beta  occ. eigenvalues --   -0.77845  -0.71474  -0.63595  -0.58595  -0.56700
  Beta  occ. eigenvalues --   -0.54183  -0.52280  -0.50812  -0.49532  -0.48041
  Beta  occ. eigenvalues --   -0.44721  -0.43210  -0.38741  -0.36159  -0.34113
  Beta virt. eigenvalues --   -0.01182   0.02402   0.05204   0.10530   0.15508
  Beta virt. eigenvalues --    0.15829   0.17678   0.18390   0.18616   0.19263
  Beta virt. eigenvalues --    0.19876   0.20611   0.21085   0.21500   0.22288

 Mulliken charges and spin densities:
               1          2
     1  C    0.029746  -0.395117
     2  C   -0.171953   0.382639
     3  C   -0.157997   0.393057
     4  C   -0.135759  -0.322134
     5  H    0.147508  -0.013404
     6  C   -0.150305   0.706917
     7  C   -0.141526  -0.324698
     8  H    0.150897  -0.013486
     9  C   -0.146510   0.384345
    10  H    0.144562   0.011261
    11  C   -0.309734  -0.844982
    12  H    0.149644  -0.033919
    13  H    0.144619   0.011358
    14  H    0.145003  -0.013241
    15  H    0.150440   0.035029
    16  H    0.151364   0.036375
    17  C    0.000000   0.000000
    18  H    0.000000   0.000000
    19  H    0.000000   0.000000
    20  Cl   0.000000   0.000000
    21  Cl   0.000000   0.000000
    22  C    0.000000   0.000000
    23  H    0.000000   0.000000
    24  H    0.000000   0.000000
    25  Cl   0.000000   0.000000
    26  Cl   0.000000   0.000000
    27  C    0.000000   0.000000
    28  H    0.000000   0.000000
    29  H    0.000000   0.000000
    30  Cl   0.000000   0.000000
    31  Cl   0.000000   0.000000
    32  C    0.000000   0.000000
    33  H    0.000000   0.000000
    34  H    0.000000   0.000000
    35  Cl   0.000000   0.000000
    36  Cl   0.000000   0.000000
    37  C    0.000000   0.000000
    38  H    0.000000   0.000000
    39  H    0.000000   0.000000
    40  Cl   0.000000   0.000000
    41  Cl   0.000000   0.000000
    42  C    0.000000   0.000000
    43  H    0.000000   0.000000
    44  H    0.000000   0.000000
    45  Cl   0.000000   0.000000
    46  Cl   0.000000   0.000000
    47  C    0.000000   0.000000
    48  H    0.000000   0.000000
    49  H    0.000000   0.000000
    50  Cl   0.000000   0.000000
    51  Cl   0.000000   0.000000
    52  C    0.000000   0.000000
    53  H    0.000000   0.000000
    54  H    0.000000   0.000000
    55  Cl   0.000000   0.000000
    56  Cl   0.000000   0.000000
    57  C    0.000000   0.000000
    58  H    0.000000   0.000000
    59  H    0.000000   0.000000
    60  Cl   0.000000   0.000000
    61  Cl   0.000000   0.000000
    62  C    0.000000   0.000000
    63  H    0.000000   0.000000
    64  H    0.000000   0.000000
    65  Cl   0.000000   0.000000
    66  Cl   0.000000   0.000000
    67  C    0.000000   0.000000
    68  H    0.000000   0.000000
    69  H    0.000000   0.000000
    70  Cl   0.000000   0.000000
    71  Cl   0.000000   0.000000
    72  C    0.000000   0.000000
    73  H    0.000000   0.000000
    74  H    0.000000   0.000000
    75  Cl   0.000000   0.000000
    76  Cl   0.000000   0.000000
    77  C    0.000000   0.000000
    78  H    0.000000   0.000000
    79  H    0.000000   0.000000
    80  Cl   0.000000   0.000000
    81  Cl   0.000000   0.000000
    82  C    0.000000   0.000000
    83  H    0.000000   0.000000
    84  H    0.000000   0.000000
    85  Cl   0.000000   0.000000
    86  Cl   0.000000   0.000000
    87  C    0.000000   0.000000
    88  H    0.000000   0.000000
    89  H    0.000000   0.000000
    90  Cl   0.000000   0.000000
    91  Cl   0.000000   0.000000
 Sum of Mulliken charges =  -0.00000   0.00000

 Dipole moment (field-independent basis, Debye):
    X=              0.0235    Y=             -0.0323    Z=             -0.1037  Tot=              0.1112
 N-N= 1.845440249848D+02 E-N=-2.805396593566D+02  KE=-6.322558215761D+01
 Calling FoFJK, ICntrl=      2127 FMM=F ISym2X=0 I1Cent= 0 IOpClX= 1 NMat=1 NMatS=1 NMatT=0.
 Cartesian Forces:  Max     0.032110949 RMS     0.004459624
 SvSCFP is copying densities from files   528 and   530 to   603.
 ONIOM: saving gridpoint  1
 ONIOM: restoring gridpoint  3
 ONIOM: calculating energy.
 ONIOM: gridpoint  1 method:  low   system:  model energy:     0.086014485748
 ONIOM: gridpoint  2 method:  high  system:  model energy:  -309.604495346870
 ONIOM: gridpoint  3 method:  low   system:  real  energy:    -0.404305672495

 Normal termination of Gaussian 16 at Fri Jul 12 22:49:35 2024.
