 Gaussian 16, Revision C.01,
 Gaussian 16:  ES64L-G16RevC.01  3-Jul-2019

 ----------------------------------------------------------------------
 # scf=(xqc,maxcycle=64) force guess=read oniom(td/b3lyp/em=gd3bj/6-31g
 (d):pm6) nosymm
 ----------------------------------------------------------------------

 ----------
 Title Card
 ----------
 Symbolic Z-matrix:
 Charge =  0 Multiplicity = 1 for low   level calculation on real  system.
 Charge =  0 Multiplicity = 1 for high  level calculation on model system.
 Charge =  0 Multiplicity = 1 for low   level calculation on model system.

                          Input orientation:
 ---------------------------------------------------------------------
 Center     Atomic      Atomic             Coordinates (Angstroms)
 Number     Number       Type             X           Y           Z
 ---------------------------------------------------------------------
      1          6           0        0.553670   -0.176240   -0.180924
      2          6           0       -0.084860   -1.294362    0.414931
      3          6           0       -0.269256    0.879646   -0.651454
      4          6           0       -1.456923   -1.357559    0.526769
      5          1           0        0.537213   -2.110103    0.778256
      6          6           0        1.974089   -0.146924   -0.308748
      7          6           0       -1.646735    0.815409   -0.515106
      8          1           0        0.184187    1.751069   -1.118053
      9          6           0       -2.254724   -0.303561    0.056532
     10          1           0       -1.917731   -2.225053    0.990656
     11          6           0        2.685995    0.891223   -1.004007
     12          1           0        2.525740   -0.994790    0.103728
     13          1           0       -2.260527    1.646770   -0.856303
     14          1           0       -3.337002   -0.360390    0.134745
     15          1           0        3.618135    1.304963   -0.628258
     16          1           0        2.330900    1.284586   -1.954892
     17          6           0        4.975973    0.556438    1.993024
     18          1           0        5.259680    1.145609    1.095697
     19          1           0        3.978818    0.861984    2.373008
     20         17           0        6.187855    0.772362    3.254094
     21         17           0        4.935916   -1.169712    1.570151
     22          6           0        5.726999   -1.067436   -1.561081
     23          1           0        4.649638   -1.115549   -1.293615
     24          1           0        6.337121   -1.670957   -0.857995
     25         17           0        6.276373    0.618010   -1.516775
     26         17           0        5.958546   -1.655284   -3.211605
     27          6           0        2.109074    3.183832    1.543864
     28          1           0        1.835726    2.144621    1.255477
     29          1           0        1.360617    3.907905    1.154853
     30         17           0        3.713871    3.581309    0.904779
     31         17           0        2.208926    3.313431    3.307193
     32          6           0       -2.257800    0.812665    3.481575
     33          1           0       -1.888428   -0.233724    3.515638
     34          1           0       -2.202274    1.291316    4.482162
     35         17           0       -3.933438    0.828669    2.905431
     36         17           0       -1.286905    1.734856    2.321547
     37          6           0       -1.047546    4.557084    4.576630
     38          1           0       -0.378652    5.431786    4.700260
     39          1           0       -0.879623    4.071212    3.591972
     40         17           0       -2.732036    5.060969    4.719050
     41         17           0       -0.729402    3.385553    5.874738
     42          6           0        4.434241    1.083769   -4.444627
     43          1           0        3.878613    0.272215   -3.927631
     44          1           0        5.529169    0.911237   -4.375092
     45         17           0        4.036317    2.649126   -3.705502
     46         17           0        3.935903    1.168165   -6.138399
     47          6           0       -5.425894    1.966389   -0.388045
     48          1           0       -6.320382    1.394748   -0.068651
     49          1           0       -4.631548    1.928052    0.387557
     50         17           0       -5.881635    3.650551   -0.683153
     51         17           0       -4.817117    1.291196   -1.905837
     52          6           0       -1.591920    0.982953   -4.088988
     53          1           0       -1.921684    1.298532   -5.100136
     54          1           0       -2.147078    1.529293   -3.295030
     55         17           0        0.147178    1.301947   -3.915043
     56         17           0       -1.834575   -0.757729   -3.898000
     57          6           0       -1.410471    5.894188    0.758979
     58          1           0       -1.047470    6.120957   -0.267116
     59          1           0       -2.291784    6.515777    1.020563
     60         17           0       -0.103897    6.199641    1.918818
     61         17           0       -1.837824    4.178170    0.889020
     62          6           0        1.109645    0.332034    4.943690
     63          1           0        0.733001    1.332214    4.640136
     64          1           0        1.955762    0.425645    5.653803
     65         17           0        1.633287   -0.564917    3.512651
     66         17           0       -0.200206   -0.583519    5.706323
     67          6           0        1.067064   -2.170368   -3.028246
     68          1           0        0.189969   -2.762818   -3.355570
     69          1           0        0.749114   -1.164541   -2.674863
     70         17           0        2.210006   -2.007026   -4.367347
     71         17           0        1.903705   -3.028591   -1.720510
     72          6           0        1.871208    3.926635   -5.950512
     73          1           0        2.841429    3.816731   -6.477260
     74          1           0        1.776737    3.159310   -5.155053
     75         17           0        1.768026    5.547044   -5.233259
     76         17           0        0.535989    3.768632   -7.094053
     77          6           0       -1.521696    4.626422   -3.682901
     78          1           0       -0.540005    4.224705   -4.010920
     79          1           0       -1.534180    5.734782   -3.738744
     80         17           0       -2.810566    3.967950   -4.699024
     81         17           0       -1.839404    4.117887   -2.010805
     82          6           0        2.156273    5.972802   -1.623935
     83          1           0        2.772866    5.932354   -2.545297
     84          1           0        2.796285    5.937474   -0.718539
     85         17           0        1.183646    7.448755   -1.620792
     86         17           0        1.021124    4.608475   -1.608937
     87          6           0       -4.377355    6.880486   -1.686319
     88          1           0       -5.349517    6.938272   -2.215900
     89          1           0       -4.077321    5.821851   -1.530601
     90         17           0       -3.141634    7.723738   -2.632379
     91         17           0       -4.505653    7.700677   -0.124787
 ---------------------------------------------------------------------

 SCF Done:  E(UPM6) = -0.404474660022     A.U. after   13 cycles
 SCF Done:  E(UB3LYP) =  -309.636413950     A.U. after    9 cycles

 Excitation energies and oscillator strengths:

 Excited state symmetry could not be determined.
 Excited State   1:  3.000-?Sym    0.8720 eV 1421.86 nm  f=0.0000  <S**2>=2.000
     26A -> 29A       -0.14483
     26A -> 31A       -0.12761
     28A -> 29A        0.78225
     28A -> 31A        0.12733
     26B -> 29B        0.14483
     26B -> 31B        0.12761
     28B -> 29B       -0.78225
     28B -> 31B       -0.12733
     28A <- 29A        0.38539
     28B <- 29B       -0.38539
 This state for optimization and/or second-order correction.
 Total Energy, E(TD-HF/TD-DFT) =  -309.604369107
 Copying the excited state density for this state as the 1-particle RhoCI density.

 Excited state symmetry could not be determined.
 Excited State   2:  3.000-?Sym    3.7340 eV  332.04 nm  f=0.0000  <S**2>=2.000
     26A -> 29A        0.45531
     27A -> 29A       -0.29692
     27A -> 30A        0.27625
     28A -> 31A       -0.31753
     26B -> 29B       -0.45531
     27B -> 29B        0.29692
     27B -> 30B       -0.27625
     28B -> 31B        0.31753

 Excited state symmetry could not be determined.
 Excited State   3:  3.000-?Sym    3.8727 eV  320.15 nm  f=0.0000  <S**2>=2.000
     26A -> 29A        0.23527
     27A -> 29A        0.54197
     27A -> 30A        0.11271
     28A -> 30A        0.31777
     28A -> 31A       -0.14981
     26B -> 29B       -0.23527
     27B -> 29B       -0.54197
     27B -> 30B       -0.11271
     28B -> 30B       -0.31777
     28B -> 31B        0.14981

 SCF Done:  E(UPM6) =  0.859665412759E-01 A.U. after   16 cycles

 Alpha  occ. eigenvalues --   -1.09775  -1.00221  -0.95869  -0.90557  -0.81222
 Alpha  occ. eigenvalues --   -0.77831  -0.71401  -0.63774  -0.58683  -0.56648
 Alpha  occ. eigenvalues --   -0.54050  -0.52327  -0.50828  -0.49730  -0.48186
 Alpha  occ. eigenvalues --   -0.44844  -0.43217  -0.39569  -0.36791  -0.32086
 Alpha virt. eigenvalues --    0.00626   0.01805   0.04427   0.10001   0.15574
 Alpha virt. eigenvalues --    0.15655   0.17706   0.18314   0.18541   0.19260
 Alpha virt. eigenvalues --    0.19826   0.20421   0.21131   0.21557   0.22344

  Beta  occ. eigenvalues --   -1.09715  -1.00144  -0.95821  -0.90695  -0.81257
  Beta  occ. eigenvalues --   -0.77841  -0.71492  -0.63598  -0.58596  -0.56713
  Beta  occ. eigenvalues --   -0.54181  -0.52285  -0.50838  -0.49527  -0.48040
  Beta  occ. eigenvalues --   -0.44724  -0.43223  -0.38734  -0.36158  -0.34113
  Beta virt. eigenvalues --   -0.01178   0.02392   0.05197   0.10525   0.15519
  Beta virt. eigenvalues --    0.15817   0.17685   0.18387   0.18611   0.19266
  Beta virt. eigenvalues --    0.19879   0.20610   0.21081   0.21502   0.22296

 Mulliken charges and spin densities:
               1          2
     1  C    0.029649  -0.394609
     2  C   -0.172099   0.382214
     3  C   -0.157953   0.392417
     4  C   -0.135465  -0.322750
     5  H    0.147479  -0.013387
     6  C   -0.150009   0.706456
     7  C   -0.141622  -0.323960
     8  H    0.150941  -0.013465
     9  C   -0.146542   0.383989
    10  H    0.144453   0.011249
    11  C   -0.309960  -0.843813
    12  H    0.149729  -0.033928
    13  H    0.144631   0.011344
    14  H    0.144918  -0.013214
    15  H    0.150602   0.035100
    16  H    0.151248   0.036358
    17  C    0.000000   0.000000
    18  H    0.000000   0.000000
    19  H    0.000000   0.000000
    20  Cl   0.000000   0.000000
    21  Cl   0.000000   0.000000
    22  C    0.000000   0.000000
    23  H    0.000000   0.000000
    24  H    0.000000   0.000000
    25  Cl   0.000000   0.000000
    26  Cl   0.000000   0.000000
    27  C    0.000000   0.000000
    28  H    0.000000   0.000000
    29  H    0.000000   0.000000
    30  Cl   0.000000   0.000000
    31  Cl   0.000000   0.000000
    32  C    0.000000   0.000000
    33  H    0.000000   0.000000
    34  H    0.000000   0.000000
    35  Cl   0.000000   0.000000
    36  Cl   0.000000   0.000000
    37  C    0.000000   0.000000
    38  H    0.000000   0.000000
    39  H    0.000000   0.000000
    40  Cl   0.000000   0.000000
    41  Cl   0.000000   0.000000
    42  C    0.000000   0.000000
    43  H    0.000000   0.000000
    44  H    0.000000   0.000000
    45  Cl   0.000000   0.000000
    46  Cl   0.000000   0.000000
    47  C    0.000000   0.000000
    48  H    0.000000   0.000000
    49  H    0.000000   0.000000
    50  Cl   0.000000   0.000000
    51  Cl   0.000000   0.000000
    52  C    0.000000   0.000000
    53  H    0.000000   0.000000
    54  H    0.000000   0.000000
    55  Cl   0.000000   0.000000
    56  Cl   0.000000   0.000000
    57  C    0.000000   0.000000
    58  H    0.000000   0.000000
    59  H    0.000000   0.000000
    60  Cl   0.000000   0.000000
    61  Cl   0.000000   0.000000
    62  C    0.000000   0.000000
    63  H    0.000000   0.000000
    64  H    0.000000   0.000000
    65  Cl   0.000000   0.000000
    66  Cl   0.000000   0.000000
    67  C    0.000000   0.000000
    68  H    0.000000   0.000000
    69  H    0.000000   0.000000
    70  Cl   0.000000   0.000000
    71  Cl   0.000000   0.000000
    72  C    0.000000   0.000000
    73  H    0.000000   0.000000
    74  H    0.000000   0.000000
    75  Cl   0.000000   0.000000
    76  Cl   0.000000   0.000000
    77  C    0.000000   0.000000
    78  H    0.000000   0.000000
    79  H    0.000000   0.000000
    80  Cl   0.000000   0.000000
    81  Cl   0.000000   0.000000
    82  C    0.000000   0.000000
    83  H    0.000000   0.000000
    84  H    0.000000   0.000000
    85  Cl   0.000000   0.000000
    86  Cl   0.000000   0.000000
    87  C    0.000000   0.000000
    88  H    0.000000   0.000000
    89  H    0.000000   0.000000
    90  Cl   0.000000   0.000000
    91  Cl   0.000000   0.000000
 Sum of Mulliken charges =  -0.00000  -0.00000

 Dipole moment (field-independent basis, Debye):
    X=              0.0182    Y=             -0.0237    Z=             -0.0982  Tot=              0.1027
 N-N= 1.845563483041D+02 E-N=-2.805612508658D+02  KE=-6.322646637354D+01
 Calling FoFJK, ICntrl=      2127 FMM=F ISym2X=0 I1Cent= 0 IOpClX= 1 NMat=1 NMatS=1 NMatT=0.
 Cartesian Forces:  Max     0.031590992 RMS     0.004391722
 SvSCFP is copying densities from files   528 and   530 to   603.
 ONIOM: saving gridpoint  1
 ONIOM: restoring gridpoint  3
 ONIOM: calculating energy.
 ONIOM: gridpoint  1 method:  low   system:  model energy:     0.085966541276
 ONIOM: gridpoint  2 method:  high  system:  model energy:  -309.604369106678
 ONIOM: gridpoint  3 method:  low   system:  real  energy:    -0.404474660022

 Normal termination of Gaussian 16 at Fri Jul 12 22:50:38 2024.
