 Gaussian 16, Revision C.01,
 Gaussian 16:  ES64L-G16RevC.01  3-Jul-2019

 ----------------------------------------------------------------------
 # scf=(xqc,maxcycle=64) force guess=read oniom(b3lyp/em=gd3bj/6-31g(d)
 :pm6) nosymm
 ----------------------------------------------------------------------

 ----------
 Title Card
 ----------
 Symbolic Z-matrix:
 Charge =  0 Multiplicity = 1 for low   level calculation on real  system.
 Charge =  0 Multiplicity = 3 for high  level calculation on model system.
 Charge =  0 Multiplicity = 3 for low   level calculation on model system.

                          Input orientation:
 ---------------------------------------------------------------------
 Center     Atomic      Atomic             Coordinates (Angstroms)
 Number     Number       Type             X           Y           Z
 ---------------------------------------------------------------------
      1          6           0        0.553670   -0.176240   -0.180924
      2          6           0       -0.084860   -1.294362    0.414931
      3          6           0       -0.269256    0.879646   -0.651454
      4          6           0       -1.456923   -1.357559    0.526769
      5          1           0        0.537213   -2.110103    0.778256
      6          6           0        1.974089   -0.146924   -0.308748
      7          6           0       -1.646735    0.815409   -0.515106
      8          1           0        0.184187    1.751069   -1.118053
      9          6           0       -2.254724   -0.303561    0.056532
     10          1           0       -1.917731   -2.225053    0.990656
     11          6           0        2.685995    0.891223   -1.004007
     12          1           0        2.525740   -0.994790    0.103728
     13          1           0       -2.260527    1.646770   -0.856303
     14          1           0       -3.337002   -0.360390    0.134745
     15          1           0        3.618135    1.304963   -0.628258
     16          1           0        2.330900    1.284586   -1.954892
     17          6           0        4.975973    0.556438    1.993024
     18          1           0        5.259680    1.145609    1.095697
     19          1           0        3.978818    0.861984    2.373008
     20         17           0        6.187855    0.772362    3.254094
     21         17           0        4.935916   -1.169712    1.570151
     22          6           0        5.726999   -1.067436   -1.561081
     23          1           0        4.649638   -1.115549   -1.293615
     24          1           0        6.337121   -1.670957   -0.857995
     25         17           0        6.276373    0.618010   -1.516775
     26         17           0        5.958546   -1.655284   -3.211605
     27          6           0        2.109074    3.183832    1.543864
     28          1           0        1.835726    2.144621    1.255477
     29          1           0        1.360617    3.907905    1.154853
     30         17           0        3.713871    3.581309    0.904779
     31         17           0        2.208926    3.313431    3.307193
     32          6           0       -2.257800    0.812665    3.481575
     33          1           0       -1.888428   -0.233724    3.515638
     34          1           0       -2.202274    1.291316    4.482162
     35         17           0       -3.933438    0.828669    2.905431
     36         17           0       -1.286905    1.734856    2.321547
     37          6           0       -1.047546    4.557084    4.576630
     38          1           0       -0.378652    5.431786    4.700260
     39          1           0       -0.879623    4.071212    3.591972
     40         17           0       -2.732036    5.060969    4.719050
     41         17           0       -0.729402    3.385553    5.874738
     42          6           0        4.434241    1.083769   -4.444627
     43          1           0        3.878613    0.272215   -3.927631
     44          1           0        5.529169    0.911237   -4.375092
     45         17           0        4.036317    2.649126   -3.705502
     46         17           0        3.935903    1.168165   -6.138399
     47          6           0       -5.425894    1.966389   -0.388045
     48          1           0       -6.320382    1.394748   -0.068651
     49          1           0       -4.631548    1.928052    0.387557
     50         17           0       -5.881635    3.650551   -0.683153
     51         17           0       -4.817117    1.291196   -1.905837
     52          6           0       -1.591920    0.982953   -4.088988
     53          1           0       -1.921684    1.298532   -5.100136
     54          1           0       -2.147078    1.529293   -3.295030
     55         17           0        0.147178    1.301947   -3.915043
     56         17           0       -1.834575   -0.757729   -3.898000
     57          6           0       -1.410471    5.894188    0.758979
     58          1           0       -1.047470    6.120957   -0.267116
     59          1           0       -2.291784    6.515777    1.020563
     60         17           0       -0.103897    6.199641    1.918818
     61         17           0       -1.837824    4.178170    0.889020
     62          6           0        1.109645    0.332034    4.943690
     63          1           0        0.733001    1.332214    4.640136
     64          1           0        1.955762    0.425645    5.653803
     65         17           0        1.633287   -0.564917    3.512651
     66         17           0       -0.200206   -0.583519    5.706323
     67          6           0        1.067064   -2.170368   -3.028246
     68          1           0        0.189969   -2.762818   -3.355570
     69          1           0        0.749114   -1.164541   -2.674863
     70         17           0        2.210006   -2.007026   -4.367347
     71         17           0        1.903705   -3.028591   -1.720510
     72          6           0        1.871208    3.926635   -5.950512
     73          1           0        2.841429    3.816731   -6.477260
     74          1           0        1.776737    3.159310   -5.155053
     75         17           0        1.768026    5.547044   -5.233259
     76         17           0        0.535989    3.768632   -7.094053
     77          6           0       -1.521696    4.626422   -3.682901
     78          1           0       -0.540005    4.224705   -4.010920
     79          1           0       -1.534180    5.734782   -3.738744
     80         17           0       -2.810566    3.967950   -4.699024
     81         17           0       -1.839404    4.117887   -2.010805
     82          6           0        2.156273    5.972802   -1.623935
     83          1           0        2.772866    5.932354   -2.545297
     84          1           0        2.796285    5.937474   -0.718539
     85         17           0        1.183646    7.448755   -1.620792
     86         17           0        1.021124    4.608475   -1.608937
     87          6           0       -4.377355    6.880486   -1.686319
     88          1           0       -5.349517    6.938272   -2.215900
     89          1           0       -4.077321    5.821851   -1.530601
     90         17           0       -3.141634    7.723738   -2.632379
     91         17           0       -4.505653    7.700677   -0.124787
 ---------------------------------------------------------------------

 SCF Done:  E(UPM6) = -0.404474660022     A.U. after   13 cycles
 SCF Done:  E(UB3LYP) =  -309.578867660     A.U. after   12 cycles
 SCF Done:  E(UPM6) =  0.111499144868     A.U. after   14 cycles

 Alpha  occ. eigenvalues --   -1.09832  -1.00410  -0.95923  -0.91001  -0.81618
 Alpha  occ. eigenvalues --   -0.77959  -0.71773  -0.63958  -0.58940  -0.56865
 Alpha  occ. eigenvalues --   -0.54597  -0.52394  -0.51382  -0.50319  -0.48611
 Alpha  occ. eigenvalues --   -0.45100  -0.43339  -0.40871  -0.37165  -0.35902
 Alpha  occ. eigenvalues --   -0.29955
 Alpha virt. eigenvalues --    0.01865   0.02554   0.09669   0.15213   0.15613
 Alpha virt. eigenvalues --    0.17193   0.18201   0.18339   0.18956   0.19629
 Alpha virt. eigenvalues --    0.20337   0.20878   0.21471   0.22052   0.22270

  Beta  occ. eigenvalues --   -1.09702  -0.99738  -0.95816  -0.89944  -0.80925
  Beta  occ. eigenvalues --   -0.77726  -0.71075  -0.63360  -0.58297  -0.56487
  Beta  occ. eigenvalues --   -0.53626  -0.52264  -0.50152  -0.48876  -0.47643
  Beta  occ. eigenvalues --   -0.44562  -0.43113  -0.36819  -0.36275
  Beta virt. eigenvalues --   -0.03399   0.02207   0.02688   0.07025   0.10835
  Beta virt. eigenvalues --    0.15674   0.15959   0.17905   0.18465   0.18869
  Beta virt. eigenvalues --    0.19451   0.20208   0.20688   0.21341   0.21785

 Mulliken charges and spin densities:
               1          2
     1  C    0.041762  -0.376542
     2  C   -0.173735   0.444338
     3  C   -0.160336   0.460884
     4  C   -0.134624  -0.364273
     5  H    0.148124  -0.015562
     6  C   -0.171689   0.790032
     7  C   -0.140789  -0.367180
     8  H    0.150930  -0.016229
     9  C   -0.146720   0.450221
    10  H    0.144590   0.012664
    11  C   -0.304922   1.038690
    12  H    0.153115  -0.010850
    13  H    0.144710   0.012841
    14  H    0.145107  -0.015485
    15  H    0.151691  -0.022584
    16  H    0.152787  -0.020964
    17  C    0.000000   0.000000
    18  H    0.000000   0.000000
    19  H    0.000000   0.000000
    20  Cl   0.000000   0.000000
    21  Cl   0.000000   0.000000
    22  C    0.000000   0.000000
    23  H    0.000000   0.000000
    24  H    0.000000   0.000000
    25  Cl   0.000000   0.000000
    26  Cl   0.000000   0.000000
    27  C    0.000000   0.000000
    28  H    0.000000   0.000000
    29  H    0.000000   0.000000
    30  Cl   0.000000   0.000000
    31  Cl   0.000000   0.000000
    32  C    0.000000   0.000000
    33  H    0.000000   0.000000
    34  H    0.000000   0.000000
    35  Cl   0.000000   0.000000
    36  Cl   0.000000   0.000000
    37  C    0.000000   0.000000
    38  H    0.000000   0.000000
    39  H    0.000000   0.000000
    40  Cl   0.000000   0.000000
    41  Cl   0.000000   0.000000
    42  C    0.000000   0.000000
    43  H    0.000000   0.000000
    44  H    0.000000   0.000000
    45  Cl   0.000000   0.000000
    46  Cl   0.000000   0.000000
    47  C    0.000000   0.000000
    48  H    0.000000   0.000000
    49  H    0.000000   0.000000
    50  Cl   0.000000   0.000000
    51  Cl   0.000000   0.000000
    52  C    0.000000   0.000000
    53  H    0.000000   0.000000
    54  H    0.000000   0.000000
    55  Cl   0.000000   0.000000
    56  Cl   0.000000   0.000000
    57  C    0.000000   0.000000
    58  H    0.000000   0.000000
    59  H    0.000000   0.000000
    60  Cl   0.000000   0.000000
    61  Cl   0.000000   0.000000
    62  C    0.000000   0.000000
    63  H    0.000000   0.000000
    64  H    0.000000   0.000000
    65  Cl   0.000000   0.000000
    66  Cl   0.000000   0.000000
    67  C    0.000000   0.000000
    68  H    0.000000   0.000000
    69  H    0.000000   0.000000
    70  Cl   0.000000   0.000000
    71  Cl   0.000000   0.000000
    72  C    0.000000   0.000000
    73  H    0.000000   0.000000
    74  H    0.000000   0.000000
    75  Cl   0.000000   0.000000
    76  Cl   0.000000   0.000000
    77  C    0.000000   0.000000
    78  H    0.000000   0.000000
    79  H    0.000000   0.000000
    80  Cl   0.000000   0.000000
    81  Cl   0.000000   0.000000
    82  C    0.000000   0.000000
    83  H    0.000000   0.000000
    84  H    0.000000   0.000000
    85  Cl   0.000000   0.000000
    86  Cl   0.000000   0.000000
    87  C    0.000000   0.000000
    88  H    0.000000   0.000000
    89  H    0.000000   0.000000
    90  Cl   0.000000   0.000000
    91  Cl   0.000000   0.000000
 Sum of Mulliken charges =  -0.00000   2.00000

 Dipole moment (field-independent basis, Debye):
    X=             -0.0082    Y=              0.0168    Z=             -0.0696  Tot=              0.0721
 N-N= 1.845563483041D+02 E-N=-2.805557006836D+02  KE=-6.319083246111D+01
 Calling FoFJK, ICntrl=      2127 FMM=F ISym2X=0 I1Cent= 0 IOpClX= 1 NMat=1 NMatS=1 NMatT=0.
 Cartesian Forces:  Max     0.021401060 RMS     0.002868329
 SvSCFP is copying densities from files   528 and   530 to   603.
 ONIOM: saving gridpoint  1
 ONIOM: restoring gridpoint  3
 ONIOM: calculating energy.
 ONIOM: gridpoint  1 method:  low   system:  model energy:     0.111499144868
 ONIOM: gridpoint  2 method:  high  system:  model energy:  -309.578867660252
 ONIOM: gridpoint  3 method:  low   system:  real  energy:    -0.404474660022

 Normal termination of Gaussian 16 at Fri Jul 12 22:49:49 2024.
