 Gaussian 16, Revision C.01,
 Gaussian 16:  ES64L-G16RevC.01  3-Jul-2019

 ----------------------------------------------------------------------
 # scf=(xqc,maxcycle=64) force guess=read oniom(td/b3lyp/em=gd3bj/6-31g
 (d):pm6) nosymm
 ----------------------------------------------------------------------

 ----------
 Title Card
 ----------
 Symbolic Z-matrix:
 Charge =  0 Multiplicity = 1 for low   level calculation on real  system.
 Charge =  0 Multiplicity = 1 for high  level calculation on model system.
 Charge =  0 Multiplicity = 1 for low   level calculation on model system.

                          Input orientation:
 ---------------------------------------------------------------------
 Center     Atomic      Atomic             Coordinates (Angstroms)
 Number     Number       Type             X           Y           Z
 ---------------------------------------------------------------------
      1          6           0        0.554233   -0.176150   -0.180608
      2          6           0       -0.084437   -1.294435    0.415858
      3          6           0       -0.267448    0.880506   -0.647737
      4          6           0       -1.456222   -1.356907    0.528870
      5          1           0        0.536646   -2.112284    0.775944
      6          6           0        1.975540   -0.146487   -0.309491
      7          6           0       -1.644879    0.816461   -0.512210
      8          1           0        0.185072    1.752318   -1.114543
      9          6           0       -2.253685   -0.303337    0.058872
     10          1           0       -1.918917   -2.224648    0.991616
     11          6           0        2.686176    0.889231   -1.004221
     12          1           0        2.522239   -0.997711    0.102581
     13          1           0       -2.257549    1.647169   -0.853530
     14          1           0       -3.335676   -0.358132    0.135974
     15          1           0        3.614188    1.313463   -0.630537
     16          1           0        2.332465    1.283334   -1.954883
     17          6           0        4.974954    0.556367    1.993782
     18          1           0        5.258492    1.146078    1.096782
     19          1           0        3.977533    0.861127    2.373678
     20         17           0        6.186414    0.772493    3.255272
     21         17           0        4.936039   -1.169553    1.569933
     22          6           0        5.728347   -1.068003   -1.560874
     23          1           0        4.650753   -1.114293   -1.294155
     24          1           0        6.336597   -1.673335   -0.857745
     25         17           0        6.280666    0.616422   -1.514880
     26         17           0        5.959964   -1.655074   -3.211691
     27          6           0        2.108223    3.184206    1.543359
     28          1           0        1.832454    2.145744    1.254639
     29          1           0        1.360247    3.909337    1.155551
     30         17           0        3.712573    3.580211    0.902202
     31         17           0        2.211091    3.312732    3.306537
     32          6           0       -2.259554    0.813527    3.478422
     33          1           0       -1.888019   -0.232158    3.510314
     34          1           0       -2.200805    1.293077    4.478347
     35         17           0       -3.937361    0.826358    2.908947
     36         17           0       -1.293654    1.737014    2.315545
     37          6           0       -1.049156    4.558905    4.579534
     38          1           0       -0.380842    5.433877    4.704584
     39          1           0       -0.879621    4.073396    3.594986
     40         17           0       -2.733940    5.062440    4.719618
     41         17           0       -0.732468    3.386427    5.877068
     42          6           0        4.434067    1.086628   -4.445819
     43          1           0        3.877083    0.276506   -3.928071
     44          1           0        5.528682    0.912391   -4.375956
     45         17           0        4.038672    2.653381   -3.708328
     46         17           0        3.936577    1.169791   -6.139860
     47          6           0       -5.425491    1.968929   -0.388546
     48          1           0       -6.319937    1.399788   -0.064428
     49          1           0       -4.627632    1.929340    0.383261
     50         17           0       -5.877731    3.654037   -0.683603
     51         17           0       -4.823672    1.290736   -1.907723
     52          6           0       -1.591231    0.981861   -4.087336
     53          1           0       -1.919824    1.298260   -5.098594
     54          1           0       -2.147778    1.527662   -3.294033
     55         17           0        0.147521    1.301445   -3.910907
     56         17           0       -1.833782   -0.758876   -3.897437
     57          6           0       -1.407849    5.893686    0.760101
     58          1           0       -1.045094    6.119627   -0.266184
     59          1           0       -2.289959    6.514070    1.021636
     60         17           0       -0.102699    6.201211    1.920913
     61         17           0       -1.834119    4.177573    0.889020
     62          6           0        1.109919    0.331333    4.942188
     63          1           0        0.733741    1.330920    4.636262
     64          1           0        1.955571    0.426423    5.652671
     65         17           0        1.634600   -0.568372    3.513291
     66         17           0       -0.200516   -0.582599    5.705631
     67          6           0        1.067408   -2.170788   -3.027933
     68          1           0        0.189596   -2.761992   -3.355704
     69          1           0        0.751088   -1.165394   -2.672091
     70         17           0        2.208324   -2.005118   -4.368436
     71         17           0        1.904959   -3.031003   -1.722138
     72          6           0        1.870947    3.926980   -5.952591
     73          1           0        2.841193    3.817216   -6.479416
     74          1           0        1.776646    3.160098   -5.156721
     75         17           0        1.766865    5.547455   -5.235605
     76         17           0        0.535477    3.767805   -7.095664
     77          6           0       -1.522591    4.623345   -3.683398
     78          1           0       -0.541515    4.219699   -4.011162
     79          1           0       -1.531195    5.731877   -3.735456
     80         17           0       -2.812221    3.971919   -4.702830
     81         17           0       -1.846191    4.111585   -2.013413
     82          6           0        2.157117    5.970946   -1.624060
     83          1           0        2.773108    5.930393   -2.545870
     84          1           0        2.796920    5.935051   -0.718516
     85         17           0        1.185056    7.447099   -1.620026
     86         17           0        1.022748    4.605694   -1.608820
     87          6           0       -4.377395    6.878829   -1.686410
     88          1           0       -5.349472    6.936589   -2.216131
     89          1           0       -4.075911    5.820208   -1.533859
     90         17           0       -3.142253    7.726097   -2.629562
     91         17           0       -4.507559    7.693851   -0.122367
 ---------------------------------------------------------------------

 SCF Done:  E(UPM6) = -0.404699586437     A.U. after   11 cycles
 SCF Done:  E(UB3LYP) =  -309.636273313     A.U. after    9 cycles

 Excitation energies and oscillator strengths:

 Excited state symmetry could not be determined.
 Excited State   1:  3.000-?Sym    0.8732 eV 1419.96 nm  f=0.0000  <S**2>=2.000
     26A -> 29A        0.14482
     26A -> 31A        0.12729
     28A -> 29A       -0.78183
     28A -> 31A       -0.12719
     26B -> 29B       -0.14482
     26B -> 31B       -0.12729
     28B -> 29B        0.78183
     28B -> 31B        0.12719
     28A <- 29A       -0.38456
     28B <- 29B        0.38456
 This state for optimization and/or second-order correction.
 Total Energy, E(TD-HF/TD-DFT) =  -309.604185606
 Copying the excited state density for this state as the 1-particle RhoCI density.

 Excited state symmetry could not be determined.
 Excited State   2:  3.000-?Sym    3.7372 eV  331.76 nm  f=0.0000  <S**2>=2.000
     26A -> 29A       -0.46645
     27A -> 29A        0.27200
     27A -> 30A       -0.28002
     28A -> 29A       -0.10115
     28A -> 31A        0.32369
     26B -> 29B        0.46645
     27B -> 29B       -0.27200
     27B -> 30B        0.28002
     28B -> 29B        0.10115
     28B -> 31B       -0.32369

 Excited state symmetry could not be determined.
 Excited State   3:  3.000-?Sym    3.8693 eV  320.43 nm  f=0.0000  <S**2>=2.000
     26A -> 29A       -0.21300
     27A -> 29A       -0.55574
     27A -> 30A       -0.10165
     28A -> 30A       -0.32050
     28A -> 31A        0.13495
     26B -> 29B        0.21300
     27B -> 29B        0.55574
     27B -> 30B        0.10165
     28B -> 30B        0.32050
     28B -> 31B       -0.13495

 SCF Done:  E(UPM6) =  0.859476837554E-01 A.U. after   16 cycles

 Alpha  occ. eigenvalues --   -1.09795  -1.00250  -0.95883  -0.90600  -0.81235
 Alpha  occ. eigenvalues --   -0.77852  -0.71431  -0.63778  -0.58669  -0.56676
 Alpha  occ. eigenvalues --   -0.54040  -0.52329  -0.50872  -0.49746  -0.48180
 Alpha  occ. eigenvalues --   -0.44845  -0.43226  -0.39545  -0.36790  -0.32089
 Alpha virt. eigenvalues --    0.00614   0.01803   0.04416   0.10001   0.15584
 Alpha virt. eigenvalues --    0.15645   0.17714   0.18322   0.18546   0.19278
 Alpha virt. eigenvalues --    0.19835   0.20425   0.21125   0.21564   0.22345

  Beta  occ. eigenvalues --   -1.09736  -1.00175  -0.95835  -0.90739  -0.81268
  Beta  occ. eigenvalues --   -0.77862  -0.71521  -0.63603  -0.58585  -0.56741
  Beta  occ. eigenvalues --   -0.54165  -0.52286  -0.50885  -0.49541  -0.48037
  Beta  occ. eigenvalues --   -0.44728  -0.43232  -0.38713  -0.36163  -0.34109
  Beta virt. eigenvalues --   -0.01176   0.02383   0.05188   0.10522   0.15531
  Beta virt. eigenvalues --    0.15805   0.17695   0.18398   0.18613   0.19280
  Beta virt. eigenvalues --    0.19886   0.20613   0.21073   0.21511   0.22297

 Mulliken charges and spin densities:
               1          2
     1  C    0.029509  -0.393692
     2  C   -0.171921   0.381113
     3  C   -0.158283   0.390038
     4  C   -0.135511  -0.321074
     5  H    0.147453  -0.013343
     6  C   -0.149142   0.705404
     7  C   -0.141497  -0.323397
     8  H    0.150994  -0.013393
     9  C   -0.146602   0.382728
    10  H    0.144560   0.011205
    11  C   -0.310575  -0.841377
    12  H    0.149796  -0.034091
    13  H    0.144431   0.011297
    14  H    0.144870  -0.013158
    15  H    0.150873   0.035269
    16  H    0.151046   0.036471
    17  C    0.000000   0.000000
    18  H    0.000000   0.000000
    19  H    0.000000   0.000000
    20  Cl   0.000000   0.000000
    21  Cl   0.000000   0.000000
    22  C    0.000000   0.000000
    23  H    0.000000   0.000000
    24  H    0.000000   0.000000
    25  Cl   0.000000   0.000000
    26  Cl   0.000000   0.000000
    27  C    0.000000   0.000000
    28  H    0.000000   0.000000
    29  H    0.000000   0.000000
    30  Cl   0.000000   0.000000
    31  Cl   0.000000   0.000000
    32  C    0.000000   0.000000
    33  H    0.000000   0.000000
    34  H    0.000000   0.000000
    35  Cl   0.000000   0.000000
    36  Cl   0.000000   0.000000
    37  C    0.000000   0.000000
    38  H    0.000000   0.000000
    39  H    0.000000   0.000000
    40  Cl   0.000000   0.000000
    41  Cl   0.000000   0.000000
    42  C    0.000000   0.000000
    43  H    0.000000   0.000000
    44  H    0.000000   0.000000
    45  Cl   0.000000   0.000000
    46  Cl   0.000000   0.000000
    47  C    0.000000   0.000000
    48  H    0.000000   0.000000
    49  H    0.000000   0.000000
    50  Cl   0.000000   0.000000
    51  Cl   0.000000   0.000000
    52  C    0.000000   0.000000
    53  H    0.000000   0.000000
    54  H    0.000000   0.000000
    55  Cl   0.000000   0.000000
    56  Cl   0.000000   0.000000
    57  C    0.000000   0.000000
    58  H    0.000000   0.000000
    59  H    0.000000   0.000000
    60  Cl   0.000000   0.000000
    61  Cl   0.000000   0.000000
    62  C    0.000000   0.000000
    63  H    0.000000   0.000000
    64  H    0.000000   0.000000
    65  Cl   0.000000   0.000000
    66  Cl   0.000000   0.000000
    67  C    0.000000   0.000000
    68  H    0.000000   0.000000
    69  H    0.000000   0.000000
    70  Cl   0.000000   0.000000
    71  Cl   0.000000   0.000000
    72  C    0.000000   0.000000
    73  H    0.000000   0.000000
    74  H    0.000000   0.000000
    75  Cl   0.000000   0.000000
    76  Cl   0.000000   0.000000
    77  C    0.000000   0.000000
    78  H    0.000000   0.000000
    79  H    0.000000   0.000000
    80  Cl   0.000000   0.000000
    81  Cl   0.000000   0.000000
    82  C    0.000000   0.000000
    83  H    0.000000   0.000000
    84  H    0.000000   0.000000
    85  Cl   0.000000   0.000000
    86  Cl   0.000000   0.000000
    87  C    0.000000   0.000000
    88  H    0.000000   0.000000
    89  H    0.000000   0.000000
    90  Cl   0.000000   0.000000
    91  Cl   0.000000   0.000000
 Sum of Mulliken charges =  -0.00000  -0.00000

 Dipole moment (field-independent basis, Debye):
    X=              0.0128    Y=             -0.0202    Z=             -0.1025  Tot=              0.1052
 N-N= 1.845765094828D+02 E-N=-2.805948791682D+02  KE=-6.322869031618D+01
 Calling FoFJK, ICntrl=      2127 FMM=F ISym2X=0 I1Cent= 0 IOpClX= 1 NMat=1 NMatS=1 NMatT=0.
 Cartesian Forces:  Max     0.030047197 RMS     0.004237456
 SvSCFP is copying densities from files   528 and   530 to   603.
 ONIOM: saving gridpoint  1
 ONIOM: restoring gridpoint  3
 ONIOM: calculating energy.
 ONIOM: gridpoint  1 method:  low   system:  model energy:     0.085947683755
 ONIOM: gridpoint  2 method:  high  system:  model energy:  -309.604185605961
 ONIOM: gridpoint  3 method:  low   system:  real  energy:    -0.404699586437

 Normal termination of Gaussian 16 at Fri Jul 12 22:51:39 2024.
