 Gaussian 16, Revision C.01,
 Gaussian 16:  ES64L-G16RevC.01  3-Jul-2019

 ----------------------------------------------------------------------
 # wb97xd def2svp scrf=(smd,solvent=acetonitrile) g09default scf=(xqc,m
 axcycle=64) force guess=read nosymm
 ----------------------------------------------------------------------

 ----------
 Title Card
 ----------
 Symbolic Z-matrix:
 Charge = -1 Multiplicity = 2

                          Input orientation:
 ---------------------------------------------------------------------
 Center     Atomic      Atomic             Coordinates (Angstroms)
 Number     Number       Type             X           Y           Z
 ---------------------------------------------------------------------
      1          6           0       -8.939320   -0.912920    1.107630
      2          6           0       -8.938442    0.459611    1.249240
      3          6           0       -8.240403   -2.118294    0.981776
      4          6           0       -7.044572   -2.801612    0.898736
      5          6           0       -9.639446   -2.118851    0.994147
      6          6           0      -10.835687   -2.804183    0.938203
      7          6           0      -10.168767    1.171727    1.334741
      8          7           0      -11.181240    1.733303    1.402749
      9          6           0       -7.707158    1.171929    1.317701
     10          7           0       -6.694132    1.733972    1.372404
     11          6           0       -5.809925   -2.094016    0.954805
     12          7           0       -4.815065   -1.499723    1.001416
     13          6           0       -7.037375   -4.218008    0.750217
     14          7           0       -7.053421   -5.371187    0.627577
     15          6           0      -10.843017   -4.223297    0.818616
     16          7           0      -10.826973   -5.379277    0.726129
     17          6           0      -12.070213   -2.096997    1.001697
     18          7           0      -13.064739   -1.502355    1.051021
 ---------------------------------------------------------------------

 SCF Done:  E(UwB97XD) =  -784.861456409     A.U. after    1 cycles

 Alpha  occ. eigenvalues --  -14.45886 -14.45885 -14.45882 -14.45880 -14.45879
 Alpha  occ. eigenvalues --  -14.45876 -10.38079 -10.38027 -10.38020 -10.37969
 Alpha  occ. eigenvalues --  -10.37965 -10.37959 -10.36067 -10.36066 -10.36064
 Alpha  occ. eigenvalues --  -10.36064 -10.36063 -10.36061  -1.06273  -1.02009
 Alpha  occ. eigenvalues --   -1.02006  -1.01565  -1.00828  -1.00827  -1.00750
 Alpha  occ. eigenvalues --   -0.92164  -0.92157  -0.89997  -0.72237  -0.72229
 Alpha  occ. eigenvalues --   -0.68661  -0.68652  -0.68380  -0.67815  -0.55682
 Alpha  occ. eigenvalues --   -0.50888  -0.50883  -0.49563  -0.49549  -0.47616
 Alpha  occ. eigenvalues --   -0.47503  -0.47499  -0.47003  -0.46701  -0.46700
 Alpha  occ. eigenvalues --   -0.46494  -0.45263  -0.44908  -0.44907  -0.44734
 Alpha  occ. eigenvalues --   -0.44451  -0.44444  -0.43003  -0.42791  -0.42786
 Alpha  occ. eigenvalues --   -0.35438  -0.35431  -0.27735
 Alpha virt. eigenvalues --    0.04899   0.04901   0.06592   0.07042   0.07054
 Alpha virt. eigenvalues --    0.10318   0.10320   0.10423   0.10733   0.12532
 Alpha virt. eigenvalues --    0.12536   0.14556   0.19309   0.19321   0.20947

  Beta  occ. eigenvalues --  -14.45699 -14.45698 -14.45696 -14.45694 -14.45693
  Beta  occ. eigenvalues --  -14.45689 -10.38108 -10.38046 -10.38038 -10.37629
  Beta  occ. eigenvalues --  -10.37626 -10.37619 -10.36157 -10.36155 -10.36154
  Beta  occ. eigenvalues --  -10.36154 -10.36153 -10.36151  -1.05857  -1.01666
  Beta  occ. eigenvalues --   -1.01664  -1.01217  -1.00508  -1.00507  -1.00432
  Beta  occ. eigenvalues --   -0.91413  -0.91406  -0.89021  -0.72089  -0.72080
  Beta  occ. eigenvalues --   -0.68441  -0.68432  -0.68117  -0.67646  -0.54858
  Beta  occ. eigenvalues --   -0.49606  -0.49597  -0.49426  -0.49415  -0.47266
  Beta  occ. eigenvalues --   -0.47153  -0.47149  -0.46653  -0.46437  -0.46437
  Beta  occ. eigenvalues --   -0.45336  -0.45162  -0.44308  -0.44300  -0.44003
  Beta  occ. eigenvalues --   -0.44002  -0.43960  -0.42863  -0.42654  -0.42649
  Beta  occ. eigenvalues --   -0.32534  -0.32531
  Beta virt. eigenvalues --   -0.10387   0.05669   0.05670   0.06701   0.07139
  Beta virt. eigenvalues --    0.07150   0.10422   0.11340   0.11342   0.11495
  Beta virt. eigenvalues --    0.12577   0.12581   0.14804   0.19509   0.19520

 Mulliken charges and spin densities:
               1          2
     1  C    0.187754  -0.047527
     2  C   -0.380328   0.304901
     3  C    0.187200  -0.047707
     4  C   -0.380519   0.305228
     5  C    0.186900  -0.047668
     6  C   -0.380387   0.305219
     7  C   -0.090069  -0.070186
     8  N    0.019973   0.108099
     9  C   -0.090026  -0.070188
    10  N    0.019935   0.108099
    11  C   -0.089841  -0.070303
    12  N    0.020038   0.108209
    13  C   -0.090266  -0.070237
    14  N    0.019886   0.108194
    15  C   -0.090334  -0.070232
    16  N    0.019857   0.108182
    17  C   -0.089872  -0.070299
    18  N    0.020100   0.108218
 Sum of Mulliken charges =  -1.00000   1.00000

 Dipole moment (field-independent basis, Debye):
    X=             42.9354    Y=              8.2254    Z=             -4.9551  Tot=             43.9961
 Quadrupole moment (field-independent basis, Debye-Ang):
   XX=           -554.8088   YY=           -184.4036   ZZ=           -104.0594
   XY=            -73.5818   XZ=             44.8937   YZ=              1.3654

 Normal termination of Gaussian 16 at Fri Oct 11 15:27:55 2024.
