 Gaussian 16, Revision C.01,
 Gaussian 16:  ES64L-G16RevC.01  3-Jul-2019

 ----------------------------------------------------------------------
 # wb97xd def2svp scrf=(smd,solvent=acetonitrile) g09default scf=(xqc,m
 axcycle=64) force guess=read nosymm
 ----------------------------------------------------------------------

 ----------
 Title Card
 ----------
 Symbolic Z-matrix:
 Charge = -2 Multiplicity = 1

                          Input orientation:
 ---------------------------------------------------------------------
 Center     Atomic      Atomic             Coordinates (Angstroms)
 Number     Number       Type             X           Y           Z
 ---------------------------------------------------------------------
      1          6           0       -8.937897   -0.896704    1.112912
      2          6           0       -8.938253    0.533293    1.255228
      3          6           0       -8.224582   -2.125217    0.979448
      4          6           0       -6.979993   -2.838225    0.897977
      5          6           0       -9.654938   -2.127787    0.993602
      6          6           0      -10.902152   -2.841275    0.935026
      7          6           0      -10.169212    1.204552    1.337755
      8          7           0      -11.213393    1.743509    1.406517
      9          6           0       -7.702419    1.208151    1.321766
     10          7           0       -6.666151    1.741479    1.374599
     11          6           0       -5.781415   -2.109824    0.952122
     12          7           0       -4.789459   -1.476612    1.000808
     13          6           0       -7.011070   -4.231858    0.746234
     14          7           0       -7.060031   -5.407604    0.618555
     15          6           0      -10.870068   -4.249532    0.818978
     16          7           0      -10.819156   -5.406040    0.728398
     17          6           0      -12.101013   -2.110661    0.999181
     18          7           0      -13.088694   -1.479823    1.049699
 ---------------------------------------------------------------------

 SCF Done:  E(RwB97XD) =  -785.024372555     A.U. after   13 cycles

 Alpha  occ. eigenvalues --  -14.43197 -14.43120 -14.43062 -14.42999 -14.42939
 Alpha  occ. eigenvalues --  -14.42866 -10.36407 -10.36350 -10.36328 -10.34180
 Alpha  occ. eigenvalues --  -10.34087 -10.34041 -10.33976 -10.33895 -10.33821
 Alpha  occ. eigenvalues --  -10.33275 -10.33219 -10.33202  -1.01518  -0.99019
 Alpha  occ. eigenvalues --   -0.98761  -0.98231  -0.97842  -0.97653  -0.97336
 Alpha  occ. eigenvalues --   -0.88120  -0.88044  -0.86005  -0.68602  -0.68532
 Alpha  occ. eigenvalues --   -0.65902  -0.65575  -0.65524  -0.63201  -0.51679
 Alpha  occ. eigenvalues --   -0.47740  -0.47685  -0.46747  -0.46667  -0.45272
 Alpha  occ. eigenvalues --   -0.45151  -0.45144  -0.44588  -0.44332  -0.44281
 Alpha  occ. eigenvalues --   -0.43502  -0.42423  -0.42188  -0.42025  -0.41907
 Alpha  occ. eigenvalues --   -0.41802  -0.41770  -0.40425  -0.39832  -0.39698
 Alpha  occ. eigenvalues --   -0.31209  -0.31142  -0.24082
 Alpha virt. eigenvalues --    0.06414   0.06477   0.08388   0.08635   0.08865
 Alpha virt. eigenvalues --    0.11894   0.12199   0.12244   0.12582   0.13957
 Alpha virt. eigenvalues --    0.14274   0.16098   0.21206   0.21260   0.24176

 Mulliken charges:
               1
     1  C    0.125201
     2  C   -0.469923
     3  C    0.124797
     4  C   -0.465892
     5  C    0.124072
     6  C   -0.472359
     7  C   -0.105336
     8  N   -0.059736
     9  C   -0.112015
    10  N   -0.044513
    11  C   -0.103969
    12  N   -0.058581
    13  C   -0.100045
    14  N   -0.067541
    15  C   -0.115201
    16  N   -0.037158
    17  C   -0.107919
    18  N   -0.053883
 Sum of Mulliken charges =  -2.00000

 Dipole moment (field-independent basis, Debye):
    X=             85.8418    Y=             16.4326    Z=             -9.8986  Tot=             87.9593
 Quadrupole moment (field-independent basis, Debye-Ang):
   XX=           -968.3238   YY=           -228.0700   ZZ=           -114.0386
   XY=           -146.2905   XZ=             89.3632   YZ=              7.2890

 Normal termination of Gaussian 16 at Fri Oct 11 15:37:07 2024.
