 Gaussian 16, Revision C.01,
 Gaussian 16:  ES64L-G16RevC.01  3-Jul-2019

 ----------------------------------------------------------------------
 # wb97xd def2svp scrf=(smd,solvent=acetonitrile) g09default scf=(xqc,m
 axcycle=64) force guess=read nosymm
 ----------------------------------------------------------------------

 ----------
 Title Card
 ----------
 Symbolic Z-matrix:
 Charge = -1 Multiplicity = 2

                          Input orientation:
 ---------------------------------------------------------------------
 Center     Atomic      Atomic             Coordinates (Angstroms)
 Number     Number       Type             X           Y           Z
 ---------------------------------------------------------------------
      1          6           0       -8.937897   -0.896704    1.112912
      2          6           0       -8.938253    0.533293    1.255228
      3          6           0       -8.224582   -2.125217    0.979448
      4          6           0       -6.979993   -2.838225    0.897977
      5          6           0       -9.654938   -2.127787    0.993602
      6          6           0      -10.902152   -2.841275    0.935026
      7          6           0      -10.169212    1.204552    1.337755
      8          7           0      -11.213393    1.743509    1.406517
      9          6           0       -7.702419    1.208151    1.321766
     10          7           0       -6.666151    1.741479    1.374599
     11          6           0       -5.781415   -2.109824    0.952122
     12          7           0       -4.789459   -1.476612    1.000808
     13          6           0       -7.011070   -4.231858    0.746234
     14          7           0       -7.060031   -5.407604    0.618555
     15          6           0      -10.870068   -4.249532    0.818978
     16          7           0      -10.819156   -5.406040    0.728398
     17          6           0      -12.101013   -2.110661    0.999181
     18          7           0      -13.088694   -1.479823    1.049699
 ---------------------------------------------------------------------

 SCF Done:  E(UwB97XD) =  -784.847268752     A.U. after   19 cycles

 Alpha  occ. eigenvalues --  -14.46441 -14.46326 -14.46304 -14.46219 -14.46102
 Alpha  occ. eigenvalues --  -14.45990 -10.39483 -10.39439 -10.39416 -10.38531
 Alpha  occ. eigenvalues --  -10.38477 -10.38413 -10.36582 -10.36473 -10.36451
 Alpha  occ. eigenvalues --  -10.36376 -10.36273 -10.36183  -1.04905  -1.01866
 Alpha  occ. eigenvalues --   -1.01647  -1.01106  -1.00595  -1.00418  -1.00101
 Alpha  occ. eigenvalues --   -0.91910  -0.91859  -0.89944  -0.71971  -0.71887
 Alpha  occ. eigenvalues --   -0.69442  -0.69068  -0.69012  -0.66680  -0.54814
 Alpha  occ. eigenvalues --   -0.50929  -0.50886  -0.49631  -0.49524  -0.47744
 Alpha  occ. eigenvalues --   -0.47643  -0.47604  -0.47102  -0.46923  -0.46867
 Alpha  occ. eigenvalues --   -0.46226  -0.44824  -0.44789  -0.44681  -0.44442
 Alpha  occ. eigenvalues --   -0.44312  -0.44200  -0.42847  -0.42413  -0.42286
 Alpha  occ. eigenvalues --   -0.34960  -0.34889  -0.28417
 Alpha virt. eigenvalues --    0.03845   0.03910   0.05962   0.06201   0.06440
 Alpha virt. eigenvalues --    0.09372   0.09687   0.09705   0.10054   0.11516
 Alpha virt. eigenvalues --    0.11856   0.14267   0.19459   0.19506   0.20967

  Beta  occ. eigenvalues --  -14.46222 -14.46115 -14.46089 -14.46008 -14.45902
  Beta  occ. eigenvalues --  -14.45797 -10.39531 -10.39488 -10.39465 -10.38171
  Beta  occ. eigenvalues --  -10.38119 -10.38062 -10.36685 -10.36573 -10.36553
  Beta  occ. eigenvalues --  -10.36475 -10.36369 -10.36276  -1.04580  -1.01503
  Beta  occ. eigenvalues --   -1.01274  -1.00740  -1.00241  -1.00057  -0.99733
  Beta  occ. eigenvalues --   -0.91130  -0.91070  -0.88964  -0.71842  -0.71766
  Beta  occ. eigenvalues --   -0.69195  -0.68890  -0.68831  -0.66546  -0.54072
  Beta  occ. eigenvalues --   -0.49626  -0.49577  -0.49517  -0.49409  -0.47355
  Beta  occ. eigenvalues --   -0.47248  -0.47225  -0.46717  -0.46613  -0.46565
  Beta  occ. eigenvalues --   -0.45110  -0.44682  -0.44164  -0.44049  -0.43858
  Beta  occ. eigenvalues --   -0.43721  -0.43489  -0.42690  -0.42271  -0.42131
  Beta  occ. eigenvalues --   -0.31856  -0.31763
  Beta virt. eigenvalues --   -0.11275   0.04444   0.04495   0.06071   0.06305
  Beta virt. eigenvalues --    0.06535   0.09703   0.10425   0.10747   0.10937
  Beta virt. eigenvalues --    0.11568   0.11906   0.14538   0.19660   0.19701

 Mulliken charges and spin densities:
               1          2
     1  C    0.148983  -0.055969
     2  C   -0.363274   0.303120
     3  C    0.149225  -0.051742
     4  C   -0.361374   0.296348
     5  C    0.146930  -0.058664
     6  C   -0.364851   0.304657
     7  C   -0.058011  -0.079513
     8  N   -0.003970   0.124953
     9  C   -0.064876  -0.074789
    10  N    0.008795   0.116335
    11  C   -0.056866  -0.078024
    12  N   -0.003496   0.122678
    13  C   -0.052860  -0.080477
    14  N   -0.011196   0.126971
    15  C   -0.068314  -0.072584
    16  N    0.014853   0.112226
    17  C   -0.060761  -0.078182
    18  N    0.001063   0.122655
 Sum of Mulliken charges =  -1.00000   1.00000

 Dipole moment (field-independent basis, Debye):
    X=             42.8901    Y=              8.2290    Z=             -4.9496  Tot=             43.9520
 Quadrupole moment (field-independent basis, Debye-Ang):
   XX=           -554.7683   YY=           -185.0038   ZZ=           -104.6403
   XY=            -73.1572   XZ=             44.8552   YZ=              1.3341

 Normal termination of Gaussian 16 at Fri Oct 11 15:36:45 2024.
