 Gaussian 16, Revision C.01,
 Gaussian 16:  ES64L-G16RevC.01  3-Jul-2019

 ----------------------------------------------------------------------
 # wb97xd def2svp scrf=(smd,solvent=acetonitrile) g09default scf=(xqc,m
 axcycle=64) force guess=read nosymm
 ----------------------------------------------------------------------

 ----------
 Title Card
 ----------
 Symbolic Z-matrix:
 Charge = -2 Multiplicity = 1

                          Input orientation:
 ---------------------------------------------------------------------
 Center     Atomic      Atomic             Coordinates (Angstroms)
 Number     Number       Type             X           Y           Z
 ---------------------------------------------------------------------
      1          6           0       -8.938509   -0.908291    1.112170
      2          6           0       -8.937496    0.559906    1.257491
      3          6           0       -8.235316   -2.119179    0.979323
      4          6           0       -6.957569   -2.850831    0.897422
      5          6           0       -9.643743   -2.121131    0.994608
      6          6           0      -10.924544   -2.855420    0.934089
      7          6           0      -10.169044    1.220235    1.339573
      8          7           0      -11.219624    1.743498    1.407310
      9          6           0       -7.707848    1.221599    1.322743
     10          7           0       -6.655362    1.743452    1.375488
     11          6           0       -5.767670   -2.118465    0.951352
     12          7           0       -4.786256   -1.471218    1.000418
     13          6           0       -6.998135   -4.243524    0.744424
     14          7           0       -7.062748   -5.409583    0.616806
     15          6           0      -10.885193   -4.246897    0.820478
     16          7           0      -10.814944   -5.420370    0.728703
     17          6           0      -12.112294   -2.121010    0.997072
     18          7           0      -13.093600   -1.472947    1.049337
 ---------------------------------------------------------------------

 SCF Done:  E(RwB97XD) =  -785.019106879     A.U. after   13 cycles

 Alpha  occ. eigenvalues --  -14.43049 -14.43029 -14.43019 -14.43014 -14.43008
 Alpha  occ. eigenvalues --  -14.42997 -10.36936 -10.36877 -10.36861 -10.34048
 Alpha  occ. eigenvalues --  -10.34025 -10.34016 -10.34013 -10.34003 -10.33990
 Alpha  occ. eigenvalues --  -10.33451 -10.33436 -10.33422  -1.02744  -0.98713
 Alpha  occ. eigenvalues --   -0.98664  -0.98338  -0.97550  -0.97507  -0.97402
 Alpha  occ. eigenvalues --   -0.87784  -0.87774  -0.86192  -0.68524  -0.68494
 Alpha  occ. eigenvalues --   -0.66095  -0.65500  -0.65496  -0.62887  -0.51908
 Alpha  occ. eigenvalues --   -0.47665  -0.47662  -0.47171  -0.47130  -0.45232
 Alpha  occ. eigenvalues --   -0.45111  -0.45102  -0.44537  -0.44465  -0.44454
 Alpha  occ. eigenvalues --   -0.43940  -0.42242  -0.41969  -0.41929  -0.41760
 Alpha  occ. eigenvalues --   -0.41706  -0.41694  -0.40357  -0.39692  -0.39676
 Alpha  occ. eigenvalues --   -0.30781  -0.30753  -0.24635
 Alpha virt. eigenvalues --    0.06187   0.06252   0.08219   0.08445   0.08506
 Alpha virt. eigenvalues --    0.11951   0.12012   0.12314   0.12355   0.13881
 Alpha virt. eigenvalues --    0.13933   0.15914   0.21328   0.21354   0.24268

 Mulliken charges:
               1
     1  C    0.117136
     2  C   -0.466329
     3  C    0.116252
     4  C   -0.466287
     5  C    0.116357
     6  C   -0.465665
     7  C   -0.097417
     8  N   -0.060953
     9  C   -0.097283
    10  N   -0.061379
    11  C   -0.096818
    12  N   -0.062036
    13  C   -0.098119
    14  N   -0.059291
    15  C   -0.094408
    16  N   -0.065784
    17  C   -0.095330
    18  N   -0.062648
 Sum of Mulliken charges =  -2.00000

 Dipole moment (field-independent basis, Debye):
    X=             85.8858    Y=             16.4699    Z=             -9.8989  Tot=             88.0091
 Quadrupole moment (field-independent basis, Debye-Ang):
   XX=           -970.0928   YY=           -229.4300   ZZ=           -114.0984
   XY=           -147.4192   XZ=             89.3563   YZ=              7.2180

 Normal termination of Gaussian 16 at Fri Oct 11 15:38:03 2024.
