 Gaussian 16, Revision C.01,
 Gaussian 16:  ES64L-G16RevC.01  3-Jul-2019

 ----------------------------------------------------------------------
 # wb97xd def2svp scrf=(smd,solvent=acetonitrile) g09default scf=(xqc,m
 axcycle=64) force guess=read nosymm
 ----------------------------------------------------------------------

 ----------
 Title Card
 ----------
 Symbolic Z-matrix:
 Charge = -1 Multiplicity = 2

                          Input orientation:
 ---------------------------------------------------------------------
 Center     Atomic      Atomic             Coordinates (Angstroms)
 Number     Number       Type             X           Y           Z
 ---------------------------------------------------------------------
      1          6           0       -8.938509   -0.908291    1.112170
      2          6           0       -8.937496    0.559906    1.257491
      3          6           0       -8.235316   -2.119179    0.979323
      4          6           0       -6.957569   -2.850831    0.897422
      5          6           0       -9.643743   -2.121131    0.994608
      6          6           0      -10.924544   -2.855420    0.934089
      7          6           0      -10.169044    1.220235    1.339573
      8          7           0      -11.219624    1.743498    1.407310
      9          6           0       -7.707848    1.221599    1.322743
     10          7           0       -6.655362    1.743452    1.375488
     11          6           0       -5.767670   -2.118465    0.951352
     12          7           0       -4.786256   -1.471218    1.000418
     13          6           0       -6.998135   -4.243524    0.744424
     14          7           0       -7.062748   -5.409583    0.616806
     15          6           0      -10.885193   -4.246897    0.820478
     16          7           0      -10.814944   -5.420370    0.728703
     17          6           0      -12.112294   -2.121010    0.997072
     18          7           0      -13.093600   -1.472947    1.049337
 ---------------------------------------------------------------------

 SCF Done:  E(UwB97XD) =  -784.835749354     A.U. after   20 cycles

 Alpha  occ. eigenvalues --  -14.46315 -14.46278 -14.46268 -14.46253 -14.46247
 Alpha  occ. eigenvalues --  -14.46238 -10.39864 -10.39804 -10.39785 -10.38666
 Alpha  occ. eigenvalues --  -10.38652 -10.38646 -10.36454 -10.36424 -10.36414
 Alpha  occ. eigenvalues --  -10.36402 -10.36400 -10.36394  -1.05953  -1.01625
 Alpha  occ. eigenvalues --   -1.01586  -1.01226  -1.00331  -1.00294  -1.00198
 Alpha  occ. eigenvalues --   -0.91579  -0.91570  -0.90091  -0.71821  -0.71784
 Alpha  occ. eigenvalues --   -0.69635  -0.68922  -0.68919  -0.66261  -0.54889
 Alpha  occ. eigenvalues --   -0.50872  -0.50863  -0.50004  -0.49966  -0.47743
 Alpha  occ. eigenvalues --   -0.47629  -0.47621  -0.47092  -0.47034  -0.47028
 Alpha  occ. eigenvalues --   -0.46643  -0.44654  -0.44632  -0.44619  -0.44467
 Alpha  occ. eigenvalues --   -0.44124  -0.44111  -0.42802  -0.42262  -0.42249
 Alpha  occ. eigenvalues --   -0.34557  -0.34532  -0.28988
 Alpha virt. eigenvalues --    0.03763   0.03830   0.05787   0.05995   0.06062
 Alpha virt. eigenvalues --    0.09411   0.09479   0.09780   0.09795   0.11445
 Alpha virt. eigenvalues --    0.11505   0.14042   0.19592   0.19619   0.21059

  Beta  occ. eigenvalues --  -14.46092 -14.46058 -14.46047 -14.46033 -14.46028
  Beta  occ. eigenvalues --  -14.46022 -10.39920 -10.39862 -10.39843 -10.38303
  Beta  occ. eigenvalues --  -10.38290 -10.38284 -10.36559 -10.36528 -10.36517
  Beta  occ. eigenvalues --  -10.36505 -10.36503 -10.36497  -1.05687  -1.01236
  Beta  occ. eigenvalues --   -1.01195  -1.00841  -0.99952  -0.99914  -0.99816
  Beta  occ. eigenvalues --   -0.90761  -0.90752  -0.89104  -0.71704  -0.71670
  Beta  occ. eigenvalues --   -0.69377  -0.68783  -0.68779  -0.66151  -0.54282
  Beta  occ. eigenvalues --   -0.49928  -0.49895  -0.49543  -0.49533  -0.47334
  Beta  occ. eigenvalues --   -0.47219  -0.47213  -0.46694  -0.46688  -0.46684
  Beta  occ. eigenvalues --   -0.45535  -0.44517  -0.43968  -0.43953  -0.43586
  Beta  occ. eigenvalues --   -0.43577  -0.43515  -0.42637  -0.42111  -0.42095
  Beta  occ. eigenvalues --   -0.31181  -0.31145
  Beta virt. eigenvalues --   -0.11965   0.04153   0.04216   0.05897   0.06094
  Beta virt. eigenvalues --    0.06160   0.09807   0.10513   0.10589   0.10635
  Beta virt. eigenvalues --    0.11498   0.11557   0.14341   0.19790   0.19815

 Mulliken charges and spin densities:
               1          2
     1  C    0.137708  -0.063385
     2  C   -0.358484   0.304547
     3  C    0.136368  -0.063859
     4  C   -0.358183   0.304369
     5  C    0.136890  -0.062604
     6  C   -0.358079   0.302832
     7  C   -0.050648  -0.081000
     8  N   -0.005404   0.126916
     9  C   -0.050357  -0.081563
    10  N   -0.005551   0.128111
    11  C   -0.050023  -0.081672
    12  N   -0.006245   0.128232
    13  C   -0.051441  -0.080234
    14  N   -0.004222   0.125388
    15  C   -0.047415  -0.082449
    16  N   -0.009477   0.129847
    17  C   -0.048594  -0.081447
    18  N   -0.006843   0.127971
 Sum of Mulliken charges =  -1.00000   1.00000

 Dipole moment (field-independent basis, Debye):
    X=             42.9422    Y=              8.2379    Z=             -4.9505  Tot=             44.0045
 Quadrupole moment (field-independent basis, Debye-Ang):
   XX=           -556.1638   YY=           -185.6425   ZZ=           -104.7249
   XY=            -73.7299   XZ=             44.8889   YZ=              1.2906

 Normal termination of Gaussian 16 at Fri Oct 11 15:37:40 2024.
