 Gaussian 16, Revision C.01,
 Gaussian 16:  ES64L-G16RevC.01  3-Jul-2019

 ----------------------------------------------------------------------
 # wb97xd def2svp scrf=(smd,solvent=acetonitrile) g09default scf=(xqc,m
 axcycle=64) force guess=read nosymm
 ----------------------------------------------------------------------

 ----------
 Title Card
 ----------
 Symbolic Z-matrix:
 Charge = -2 Multiplicity = 1

                          Input orientation:
 ---------------------------------------------------------------------
 Center     Atomic      Atomic             Coordinates (Angstroms)
 Number     Number       Type             X           Y           Z
 ---------------------------------------------------------------------
      1          6           0       -8.940035   -0.904652    1.111856
      2          6           0       -8.941974    0.529156    1.254770
      3          6           0       -8.231765   -2.122811    0.979152
      4          6           0       -6.981236   -2.837627    0.897798
      5          6           0       -9.642972   -2.120232    0.994785
      6          6           0      -10.902531   -2.839102    0.935494
      7          6           0      -10.163518    1.207194    1.338390
      8          7           0      -11.206993    1.738570    1.405833
      9          6           0       -7.686637    1.221535    1.322599
     10          7           0       -6.690020    1.728072    1.373491
     11          6           0       -5.791901   -2.123238    0.951463
     12          7           0       -4.788685   -1.474556    1.000893
     13          6           0       -7.004673   -4.218721    0.747788
     14          7           0       -7.061850   -5.406744    0.618760
     15          6           0      -10.874415   -4.252408    0.819070
     16          7           0      -10.819727   -5.393349    0.729257
     17          6           0      -12.097923   -2.119155    0.997655
     18          7           0      -13.083040   -1.482110    1.049750
 ---------------------------------------------------------------------

 SCF Done:  E(RwB97XD) =  -785.016563299     A.U. after   14 cycles

 Alpha  occ. eigenvalues --  -14.43330 -14.43315 -14.42804 -14.42799 -14.42507
 Alpha  occ. eigenvalues --  -14.42142 -10.36332 -10.36277 -10.36256 -10.34298
 Alpha  occ. eigenvalues --  -10.34281 -10.33791 -10.33790 -10.33450 -10.33245
 Alpha  occ. eigenvalues --  -10.33130 -10.33043 -10.33037  -1.02336  -1.00287
 Alpha  occ. eigenvalues --   -0.99293  -0.98118  -0.97874  -0.97748  -0.96672
 Alpha  occ. eigenvalues --   -0.88149  -0.87750  -0.86057  -0.68678  -0.68478
 Alpha  occ. eigenvalues --   -0.66042  -0.65431  -0.64943  -0.63261  -0.51931
 Alpha  occ. eigenvalues --   -0.47888  -0.47708  -0.46972  -0.46818  -0.45202
 Alpha  occ. eigenvalues --   -0.45083  -0.45051  -0.44535  -0.44462  -0.44324
 Alpha  occ. eigenvalues --   -0.43955  -0.42867  -0.42588  -0.42234  -0.42195
 Alpha  occ. eigenvalues --   -0.41720  -0.41344  -0.40263  -0.39966  -0.39524
 Alpha  occ. eigenvalues --   -0.31142  -0.30918  -0.24209
 Alpha virt. eigenvalues --    0.06406   0.06798   0.08013   0.08933   0.09444
 Alpha virt. eigenvalues --    0.11470   0.12560   0.12791   0.13487   0.13948
 Alpha virt. eigenvalues --    0.15076   0.16080   0.21170   0.21409   0.24425

 Mulliken charges:
               1
     1  C    0.128385
     2  C   -0.479693
     3  C    0.131870
     4  C   -0.458818
     5  C    0.122041
     6  C   -0.475804
     7  C   -0.111831
     8  N   -0.060755
     9  C   -0.138091
    10  N    0.008875
    11  C   -0.088270
    12  N   -0.086386
    13  C   -0.088902
    14  N   -0.086825
    15  C   -0.125366
    16  N   -0.020886
    17  C   -0.108629
    18  N   -0.060916
 Sum of Mulliken charges =  -2.00000

 Dipole moment (field-independent basis, Debye):
    X=             86.0538    Y=             16.7408    Z=             -9.8633  Tot=             88.2202
 Quadrupole moment (field-independent basis, Debye-Ang):
   XX=           -972.9264   YY=           -228.0185   ZZ=           -113.7638
   XY=           -148.1507   XZ=             89.4084   YZ=              7.6227

 Normal termination of Gaussian 16 at Fri Oct 11 15:39:00 2024.
