 Gaussian 16, Revision C.01,
 Gaussian 16:  ES64L-G16RevC.01  3-Jul-2019

 ----------------------------------------------------------------------
 # wb97xd def2svp scrf=(smd,solvent=acetonitrile) g09default scf=(xqc,m
 axcycle=64) force guess=read nosymm
 ----------------------------------------------------------------------

 ----------
 Title Card
 ----------
 Symbolic Z-matrix:
 Charge = -1 Multiplicity = 2

                          Input orientation:
 ---------------------------------------------------------------------
 Center     Atomic      Atomic             Coordinates (Angstroms)
 Number     Number       Type             X           Y           Z
 ---------------------------------------------------------------------
      1          6           0       -8.940035   -0.904652    1.111856
      2          6           0       -8.941974    0.529156    1.254770
      3          6           0       -8.231765   -2.122811    0.979152
      4          6           0       -6.981236   -2.837627    0.897798
      5          6           0       -9.642972   -2.120232    0.994785
      6          6           0      -10.902531   -2.839102    0.935494
      7          6           0      -10.163518    1.207194    1.338390
      8          7           0      -11.206993    1.738570    1.405833
      9          6           0       -7.686637    1.221535    1.322599
     10          7           0       -6.690020    1.728072    1.373491
     11          6           0       -5.791901   -2.123238    0.951463
     12          7           0       -4.788685   -1.474556    1.000893
     13          6           0       -7.004673   -4.218721    0.747788
     14          7           0       -7.061850   -5.406744    0.618760
     15          6           0      -10.874415   -4.252408    0.819070
     16          7           0      -10.819727   -5.393349    0.729257
     17          6           0      -12.097923   -2.119155    0.997655
     18          7           0      -13.083040   -1.482110    1.049750
 ---------------------------------------------------------------------

 SCF Done:  E(UwB97XD) =  -784.838057491     A.U. after   20 cycles

 Alpha  occ. eigenvalues --  -14.46594 -14.46581 -14.46183 -14.46132 -14.45630
 Alpha  occ. eigenvalues --  -14.45040 -10.39414 -10.39336 -10.39289 -10.38565
 Alpha  occ. eigenvalues --  -10.38529 -10.38120 -10.36685 -10.36668 -10.36287
 Alpha  occ. eigenvalues --  -10.36248 -10.35838 -10.35322  -1.05696  -1.02906
 Alpha  occ. eigenvalues --   -1.02116  -1.01030  -1.00765  -1.00657  -0.99461
 Alpha  occ. eigenvalues --   -0.91885  -0.91651  -0.90026  -0.72052  -0.71793
 Alpha  occ. eigenvalues --   -0.69546  -0.68979  -0.68463  -0.66734  -0.55031
 Alpha  occ. eigenvalues --   -0.51057  -0.50910  -0.49855  -0.49702  -0.47695
 Alpha  occ. eigenvalues --   -0.47597  -0.47492  -0.47028  -0.47023  -0.46856
 Alpha  occ. eigenvalues --   -0.46635  -0.45246  -0.45223  -0.44951  -0.44636
 Alpha  occ. eigenvalues --   -0.44166  -0.44040  -0.42750  -0.42526  -0.42114
 Alpha  occ. eigenvalues --   -0.34958  -0.34680  -0.28581
 Alpha virt. eigenvalues --    0.03856   0.04257   0.05567   0.06455   0.07016
 Alpha virt. eigenvalues --    0.08923   0.10051   0.10234   0.11006   0.11467
 Alpha virt. eigenvalues --    0.12697   0.14243   0.19439   0.19678   0.21222

  Beta  occ. eigenvalues --  -14.46364 -14.46351 -14.45954 -14.45906 -14.45446
  Beta  occ. eigenvalues --  -14.44887 -10.39453 -10.39388 -10.39350 -10.38193
  Beta  occ. eigenvalues --  -10.38154 -10.37787 -10.36792 -10.36774 -10.36393
  Beta  occ. eigenvalues --  -10.36353 -10.35928 -10.35400  -1.05385  -1.02611
  Beta  occ. eigenvalues --   -1.01769  -1.00644  -1.00380  -1.00268  -0.99070
  Beta  occ. eigenvalues --   -0.91116  -0.90821  -0.89032  -0.71922  -0.71699
  Beta  occ. eigenvalues --   -0.69337  -0.68782  -0.68249  -0.66605  -0.54342
  Beta  occ. eigenvalues --   -0.49792  -0.49741  -0.49609  -0.49599  -0.47289
  Beta  occ. eigenvalues --   -0.47194  -0.47125  -0.46712  -0.46646  -0.46562
  Beta  occ. eigenvalues --   -0.45587  -0.45108  -0.44495  -0.44288  -0.44007
  Beta  occ. eigenvalues --   -0.43963  -0.43011  -0.42589  -0.42390  -0.41938
  Beta  occ. eigenvalues --   -0.31734  -0.31452
  Beta virt. eigenvalues --   -0.11425   0.04429   0.04761   0.05687   0.06560
  Beta virt. eigenvalues --    0.07103   0.09981   0.10059   0.11266   0.11517
  Beta virt. eigenvalues --    0.11891   0.12741   0.14521   0.19648   0.19858

 Mulliken charges and spin densities:
               1          2
     1  C    0.147981  -0.069202
     2  C   -0.367943   0.316905
     3  C    0.157811  -0.043778
     4  C   -0.360295   0.279146
     5  C    0.142916  -0.062772
     6  C   -0.363526   0.316959
     7  C   -0.064105  -0.083003
     8  N   -0.003618   0.131169
     9  C   -0.091266  -0.060731
    10  N    0.053058   0.088738
    11  C   -0.041515  -0.083321
    12  N   -0.028389   0.133757
    13  C   -0.042046  -0.083244
    14  N   -0.028976   0.133529
    15  C   -0.077205  -0.070164
    16  N    0.029586   0.106733
    17  C   -0.059665  -0.084166
    18  N   -0.002803   0.133444
 Sum of Mulliken charges =  -1.00000   1.00000

 Dipole moment (field-independent basis, Debye):
    X=             42.8386    Y=              8.4500    Z=             -4.9237  Tot=             43.9407
 Quadrupole moment (field-independent basis, Debye-Ang):
   XX=           -554.2658   YY=           -185.0389   ZZ=           -104.3922
   XY=            -74.2351   XZ=             44.6630   YZ=              1.5590

 Normal termination of Gaussian 16 at Fri Oct 11 15:38:37 2024.
