 Gaussian 16, Revision C.01,
 Gaussian 16:  ES64L-G16RevC.01  3-Jul-2019

 ----------------------------------------------------------------------
 # wb97xd def2svp scrf=(smd,solvent=acetonitrile) g09default scf=(xqc,m
 axcycle=64) force guess=read nosymm
 ----------------------------------------------------------------------

 ----------
 Title Card
 ----------
 Symbolic Z-matrix:
 Charge = -2 Multiplicity = 1

                          Input orientation:
 ---------------------------------------------------------------------
 Center     Atomic      Atomic             Coordinates (Angstroms)
 Number     Number       Type             X           Y           Z
 ---------------------------------------------------------------------
      1          6           0       -8.941576   -0.880312    1.113317
      2          6           0       -8.942964    0.509568    1.253046
      3          6           0       -8.211303   -2.136036    0.978399
      4          6           0       -6.998468   -2.828907    0.898828
      5          6           0       -9.661284   -2.130454    0.994077
      6          6           0      -10.885931   -2.829551    0.936422
      7          6           0      -10.177358    1.223583    1.340329
      8          7           0      -11.208149    1.738352    1.406367
      9          6           0       -7.671866    1.238505    1.324360
     10          7           0       -6.688647    1.727999    1.373909
     11          6           0       -5.771677   -2.120653    0.951619
     12          7           0       -4.786571   -1.472569    1.000326
     13          6           0       -6.997117   -4.238304    0.745395
     14          7           0       -7.062787   -5.407298    0.617202
     15          6           0      -10.882188   -4.270544    0.818698
     16          7           0      -10.818778   -5.396998    0.730273
     17          6           0      -12.118712   -2.116301    0.997193
     18          7           0      -13.084519   -1.480257    1.049045
 ---------------------------------------------------------------------

 SCF Done:  E(RwB97XD) =  -785.006539951     A.U. after   13 cycles

 Alpha  occ. eigenvalues --  -14.43195 -14.43150 -14.42644 -14.42626 -14.42315
 Alpha  occ. eigenvalues --  -14.41866 -10.35797 -10.35744 -10.35720 -10.34153
 Alpha  occ. eigenvalues --  -10.34099 -10.33610 -10.33603 -10.33335 -10.33255
 Alpha  occ. eigenvalues --  -10.33146 -10.33084 -10.32744  -1.01250  -1.00320
 Alpha  occ. eigenvalues --   -0.99448  -0.98767  -0.98506  -0.97857  -0.97422
 Alpha  occ. eigenvalues --   -0.88080  -0.87613  -0.85081  -0.68238  -0.68171
 Alpha  occ. eigenvalues --   -0.65235  -0.64714  -0.64047  -0.63238  -0.51245
 Alpha  occ. eigenvalues --   -0.47886  -0.47615  -0.46368  -0.46175  -0.45245
 Alpha  occ. eigenvalues --   -0.45145  -0.45072  -0.44603  -0.44446  -0.44087
 Alpha  occ. eigenvalues --   -0.43688  -0.43299  -0.42930  -0.42629  -0.42469
 Alpha  occ. eigenvalues --   -0.42131  -0.41811  -0.40753  -0.40429  -0.39947
 Alpha  occ. eigenvalues --   -0.31835  -0.31546  -0.23220
 Alpha virt. eigenvalues --    0.06693   0.07186   0.08703   0.09644   0.10133
 Alpha virt. eigenvalues --    0.12143   0.12301   0.13466   0.14255   0.14287
 Alpha virt. eigenvalues --    0.15470   0.16155   0.20858   0.21106   0.24162

 Mulliken charges:
               1
     1  C    0.144622
     2  C   -0.493740
     3  C    0.145894
     4  C   -0.477182
     5  C    0.136054
     6  C   -0.489338
     7  C   -0.129081
     8  N   -0.041079
     9  C   -0.147499
    10  N    0.018952
    11  C   -0.105026
    12  N   -0.069567
    13  C   -0.107867
    14  N   -0.065786
    15  C   -0.136753
    16  N   -0.012911
    17  C   -0.124709
    18  N   -0.044984
 Sum of Mulliken charges =  -2.00000

 Dipole moment (field-independent basis, Debye):
    X=             86.0687    Y=             16.8583    Z=             -9.8498  Tot=             88.2555
 Quadrupole moment (field-independent basis, Debye-Ang):
   XX=           -970.8769   YY=           -225.9856   ZZ=           -113.7673
   XY=           -149.4436   XZ=             89.2712   YZ=              7.9638

 Normal termination of Gaussian 16 at Fri Oct 11 15:39:57 2024.
