 Gaussian 16, Revision C.01,
 Gaussian 16:  ES64L-G16RevC.01  3-Jul-2019

 ----------------------------------------------------------------------
 # wb97xd def2svp scrf=(smd,solvent=acetonitrile) g09default scf=(xqc,m
 axcycle=64) force guess=read nosymm
 ----------------------------------------------------------------------

 ----------
 Title Card
 ----------
 Symbolic Z-matrix:
 Charge = -1 Multiplicity = 2

                          Input orientation:
 ---------------------------------------------------------------------
 Center     Atomic      Atomic             Coordinates (Angstroms)
 Number     Number       Type             X           Y           Z
 ---------------------------------------------------------------------
      1          6           0       -8.941576   -0.880312    1.113317
      2          6           0       -8.942964    0.509568    1.253046
      3          6           0       -8.211303   -2.136036    0.978399
      4          6           0       -6.998468   -2.828907    0.898828
      5          6           0       -9.661284   -2.130454    0.994077
      6          6           0      -10.885931   -2.829551    0.936422
      7          6           0      -10.177358    1.223583    1.340329
      8          7           0      -11.208149    1.738352    1.406367
      9          6           0       -7.671866    1.238505    1.324360
     10          7           0       -6.688647    1.727999    1.373909
     11          6           0       -5.771677   -2.120653    0.951619
     12          7           0       -4.786571   -1.472569    1.000326
     13          6           0       -6.997117   -4.238304    0.745395
     14          7           0       -7.062787   -5.407298    0.617202
     15          6           0      -10.882188   -4.270544    0.818698
     16          7           0      -10.818778   -5.396998    0.730273
     17          6           0      -12.118712   -2.116301    0.997193
     18          7           0      -13.084519   -1.480257    1.049045
 ---------------------------------------------------------------------

 SCF Done:  E(UwB97XD) =  -784.839341456     A.U. after   19 cycles

 Alpha  occ. eigenvalues --  -14.46341 -14.46286 -14.45865 -14.45788 -14.45330
 Alpha  occ. eigenvalues --  -14.44603 -10.39106 -10.39043 -10.39000 -10.38674
 Alpha  occ. eigenvalues --  -10.38614 -10.38243 -10.36523 -10.36467 -10.36074
 Alpha  occ. eigenvalues --  -10.36004 -10.35627 -10.34981  -1.04106  -1.03266
 Alpha  occ. eigenvalues --   -1.02310  -1.01526  -1.01279  -1.00850  -1.00105
 Alpha  occ. eigenvalues --   -0.91894  -0.91571  -0.89157  -0.71700  -0.71653
 Alpha  occ. eigenvalues --   -0.68756  -0.68325  -0.67603  -0.66864  -0.54537
 Alpha  occ. eigenvalues --   -0.50965  -0.50787  -0.49224  -0.48980  -0.47641
 Alpha  occ. eigenvalues --   -0.47517  -0.47409  -0.46957  -0.46904  -0.46627
 Alpha  occ. eigenvalues --   -0.46274  -0.45673  -0.45554  -0.45260  -0.44933
 Alpha  occ. eigenvalues --   -0.44513  -0.44405  -0.43182  -0.43023  -0.42539
 Alpha  occ. eigenvalues --   -0.35625  -0.35321  -0.27606
 Alpha virt. eigenvalues --    0.03948   0.04465   0.06306   0.07227   0.07756
 Alpha virt. eigenvalues --    0.09673   0.09757   0.10992   0.11786   0.11916
 Alpha virt. eigenvalues --    0.13103   0.14327   0.19030   0.19297   0.20984

  Beta  occ. eigenvalues --  -14.46142 -14.46090 -14.45669 -14.45600 -14.45169
  Beta  occ. eigenvalues --  -14.44476 -10.39131 -10.39082 -10.39051 -10.38305
  Beta  occ. eigenvalues --  -10.38238 -10.37907 -10.36617 -10.36560 -10.36168
  Beta  occ. eigenvalues --  -10.36095 -10.35707 -10.35048  -1.03778  -1.02978
  Beta  occ. eigenvalues --   -1.01997  -1.01195  -1.00951  -1.00495  -0.99771
  Beta  occ. eigenvalues --   -0.91148  -0.90765  -0.88143  -0.71562  -0.71517
  Beta  occ. eigenvalues --   -0.68535  -0.68076  -0.67341  -0.66694  -0.53650
  Beta  occ. eigenvalues --   -0.49731  -0.49508  -0.49085  -0.48828  -0.47279
  Beta  occ. eigenvalues --   -0.47174  -0.47100  -0.46698  -0.46621  -0.46405
  Beta  occ. eigenvalues --   -0.45561  -0.45381  -0.44786  -0.44649  -0.44373
  Beta  occ. eigenvalues --   -0.44366  -0.43522  -0.43047  -0.42900  -0.42386
  Beta  occ. eigenvalues --   -0.32784  -0.32446
  Beta virt. eigenvalues --   -0.10167   0.04843   0.05264   0.06415   0.07322
  Beta virt. eigenvalues --    0.07832   0.09750   0.10653   0.11835   0.11934
  Beta virt. eigenvalues --    0.12714   0.13149   0.14601   0.19282   0.19512

 Mulliken charges and spin densities:
               1          2
     1  C    0.170385  -0.059876
     2  C   -0.382151   0.319098
     3  C    0.178774  -0.031971
     4  C   -0.377278   0.286469
     5  C    0.163557  -0.048924
     6  C   -0.376128   0.322630
     7  C   -0.081745  -0.071201
     8  N    0.011333   0.109255
     9  C   -0.100690  -0.052889
    10  N    0.059049   0.073616
    11  C   -0.058120  -0.073538
    12  N   -0.014758   0.115583
    13  C   -0.060997  -0.072425
    14  N   -0.011581   0.113912
    15  C   -0.088229  -0.062987
    16  N    0.034769   0.093101
    17  C   -0.075512  -0.073783
    18  N    0.009323   0.113929
 Sum of Mulliken charges =  -1.00000   1.00000

 Dipole moment (field-independent basis, Debye):
    X=             42.8758    Y=              8.4906    Z=             -4.9178  Tot=             43.9842
 Quadrupole moment (field-independent basis, Debye-Ang):
   XX=           -553.6146   YY=           -183.8202   ZZ=           -104.3374
   XY=            -74.8131   XZ=             44.6305   YZ=              1.7180

 Normal termination of Gaussian 16 at Fri Oct 11 15:39:34 2024.
