 Gaussian 16, Revision C.01,
 Gaussian 16:  ES64L-G16RevC.01  3-Jul-2019

 ----------------------------------------------------------------------
 # wb97xd def2svp scrf=(smd,solvent=acetonitrile) g09default scf=(xqc,m
 axcycle=64) force guess=read nosymm
 ----------------------------------------------------------------------

 ----------
 Title Card
 ----------
 Symbolic Z-matrix:
 Charge = -2 Multiplicity = 1

                          Input orientation:
 ---------------------------------------------------------------------
 Center     Atomic      Atomic             Coordinates (Angstroms)
 Number     Number       Type             X           Y           Z
 ---------------------------------------------------------------------
      1          6           0       -8.943262   -0.865748    1.113354
      2          6           0       -8.946931    0.486692    1.251197
      3          6           0       -8.190024   -2.146604    0.978794
      4          6           0       -7.018833   -2.816668    0.899640
      5          6           0       -9.686817   -2.141665    0.993121
      6          6           0      -10.857811   -2.811761    0.937900
      7          6           0      -10.185475    1.233457    1.341228
      8          7           0      -11.219833    1.744673    1.407856
      9          6           0       -7.657683    1.254352    1.325806
     10          7           0       -6.679269    1.730082    1.374626
     11          6           0       -5.757819   -2.117903    0.951928
     12          7           0       -4.779282   -1.468801    0.999932
     13          6           0       -6.994387   -4.253101    0.743720
     14          7           0       -7.061576   -5.415312    0.614910
     15          6           0      -10.890283   -4.286029    0.818249
     16          7           0      -10.814512   -5.407471    0.730994
     17          6           0      -12.131284   -2.115375    0.996992
     18          7           0      -13.094813   -1.472996    1.048558
 ---------------------------------------------------------------------

 SCF Done:  E(RwB97XD) =  -784.976658278     A.U. after   14 cycles

 Alpha  occ. eigenvalues --  -14.43288 -14.43228 -14.42944 -14.42736 -14.42537
 Alpha  occ. eigenvalues --  -14.41762 -10.35246 -10.35207 -10.35192 -10.34232
 Alpha  occ. eigenvalues --  -10.34163 -10.33890 -10.33714 -10.33432 -10.33406
 Alpha  occ. eigenvalues --  -10.33364 -10.33185 -10.32643  -1.01522  -1.00278
 Alpha  occ. eigenvalues --   -0.99201  -0.98790  -0.98607  -0.97760  -0.96788
 Alpha  occ. eigenvalues --   -0.88298  -0.87766  -0.84033  -0.68357  -0.68118
 Alpha  occ. eigenvalues --   -0.64729  -0.64137  -0.63574  -0.63072  -0.50861
 Alpha  occ. eigenvalues --   -0.47767  -0.47535  -0.46107  -0.45961  -0.45346
 Alpha  occ. eigenvalues --   -0.45247  -0.45173  -0.44730  -0.44412  -0.43832
 Alpha  occ. eigenvalues --   -0.43670  -0.43375  -0.42889  -0.42483  -0.42326
 Alpha  occ. eigenvalues --   -0.42081  -0.42026  -0.40879  -0.40605  -0.39979
 Alpha  occ. eigenvalues --   -0.32517  -0.32384  -0.22155
 Alpha virt. eigenvalues --    0.06823   0.07433   0.08945   0.09707   0.10167
 Alpha virt. eigenvalues --    0.11521   0.12364   0.13528   0.14033   0.14564
 Alpha virt. eigenvalues --    0.15299   0.16157   0.20432   0.20746   0.23516

 Mulliken charges:
               1
     1  C    0.162111
     2  C   -0.503473
     3  C    0.165834
     4  C   -0.493691
     5  C    0.169607
     6  C   -0.501409
     7  C   -0.134607
     8  N   -0.047611
     9  C   -0.152564
    10  N    0.019498
    11  C   -0.113251
    12  N   -0.065128
    13  C   -0.116946
    14  N   -0.059143
    15  C   -0.139866
    16  N   -0.011776
    17  C   -0.129140
    18  N   -0.048445
 Sum of Mulliken charges =  -2.00000

 Dipole moment (field-independent basis, Debye):
    X=             86.0108    Y=             16.5862    Z=             -9.8746  Tot=             88.1503
 Quadrupole moment (field-independent basis, Debye-Ang):
   XX=           -968.3205   YY=           -223.7955   ZZ=           -113.9629
   XY=           -146.4735   XZ=             89.4717   YZ=              7.8448

 Normal termination of Gaussian 16 at Fri Oct 11 15:40:53 2024.
