 Gaussian 16, Revision C.01,
 Gaussian 16:  ES64L-G16RevC.01  3-Jul-2019

 ----------------------------------------------------------------------
 # wb97xd def2svp scrf=(smd,solvent=acetonitrile) g09default scf=(xqc,m
 axcycle=64) force guess=read nosymm
 ----------------------------------------------------------------------

 ----------
 Title Card
 ----------
 Symbolic Z-matrix:
 Charge = -1 Multiplicity = 2

                          Input orientation:
 ---------------------------------------------------------------------
 Center     Atomic      Atomic             Coordinates (Angstroms)
 Number     Number       Type             X           Y           Z
 ---------------------------------------------------------------------
      1          6           0       -8.943262   -0.865748    1.113354
      2          6           0       -8.946931    0.486692    1.251197
      3          6           0       -8.190024   -2.146604    0.978794
      4          6           0       -7.018833   -2.816668    0.899640
      5          6           0       -9.686817   -2.141665    0.993121
      6          6           0      -10.857811   -2.811761    0.937900
      7          6           0      -10.185475    1.233457    1.341228
      8          7           0      -11.219833    1.744673    1.407856
      9          6           0       -7.657683    1.254352    1.325806
     10          7           0       -6.679269    1.730082    1.374626
     11          6           0       -5.757819   -2.117903    0.951928
     12          7           0       -4.779282   -1.468801    0.999932
     13          6           0       -6.994387   -4.253101    0.743720
     14          7           0       -7.061576   -5.415312    0.614910
     15          6           0      -10.890283   -4.286029    0.818249
     16          7           0      -10.814512   -5.407471    0.730994
     17          6           0      -12.131284   -2.115375    0.996992
     18          7           0      -13.094813   -1.472996    1.048558
 ---------------------------------------------------------------------

 SCF Done:  E(UwB97XD) =  -784.821192009     A.U. after   19 cycles

 Alpha  occ. eigenvalues --  -14.46337 -14.46248 -14.45997 -14.45888 -14.45333
 Alpha  occ. eigenvalues --  -14.44408 -10.38827 -10.38786 -10.38714 -10.38685
 Alpha  occ. eigenvalues --  -10.38621 -10.38321 -10.36580 -10.36502 -10.36265
 Alpha  occ. eigenvalues --  -10.36154 -10.35700 -10.34877  -1.03961  -1.03014
 Alpha  occ. eigenvalues --   -1.02126  -1.01517  -1.01259  -1.00360  -1.00207
 Alpha  occ. eigenvalues --   -0.92127  -0.91721  -0.88196  -0.71922  -0.71715
 Alpha  occ. eigenvalues --   -0.68230  -0.67702  -0.67268  -0.66629  -0.54287
 Alpha  occ. eigenvalues --   -0.50781  -0.50627  -0.48763  -0.48654  -0.47657
 Alpha  occ. eigenvalues --   -0.47533  -0.47412  -0.46959  -0.46764  -0.46346
 Alpha  occ. eigenvalues --   -0.46154  -0.45796  -0.45406  -0.45172  -0.44923
 Alpha  occ. eigenvalues --   -0.44529  -0.44441  -0.43334  -0.43172  -0.42658
 Alpha  occ. eigenvalues --   -0.36310  -0.36085  -0.26501
 Alpha virt. eigenvalues --    0.03934   0.04565   0.06599   0.07389   0.07690
 Alpha virt. eigenvalues --    0.09019   0.09971   0.11195   0.11570   0.12224
 Alpha virt. eigenvalues --    0.12944   0.14300   0.18474   0.18828   0.20396

  Beta  occ. eigenvalues --  -14.46159 -14.46076 -14.45825 -14.45707 -14.45200
  Beta  occ. eigenvalues --  -14.44298 -10.38793 -10.38735 -10.38720 -10.38445
  Beta  occ. eigenvalues --  -10.38285 -10.37997 -10.36666 -10.36586 -10.36349
  Beta  occ. eigenvalues --  -10.36242 -10.35770 -10.34939  -1.03732  -1.02711
  Beta  occ. eigenvalues --   -1.01809  -1.01206  -1.00968  -1.00063  -0.99823
  Beta  occ. eigenvalues --   -0.91434  -0.90972  -0.87183  -0.71742  -0.71524
  Beta  occ. eigenvalues --   -0.67998  -0.67455  -0.67056  -0.66364  -0.53252
  Beta  occ. eigenvalues --   -0.49600  -0.49402  -0.48593  -0.48439  -0.47330
  Beta  occ. eigenvalues --   -0.47230  -0.47133  -0.46719  -0.46592  -0.46169
  Beta  occ. eigenvalues --   -0.45693  -0.45406  -0.44760  -0.44641  -0.44308
  Beta  occ. eigenvalues --   -0.44159  -0.43754  -0.43214  -0.43051  -0.42510
  Beta  occ. eigenvalues --   -0.33788  -0.33619
  Beta virt. eigenvalues --   -0.08902   0.05142   0.05654   0.06703   0.07478
  Beta virt. eigenvalues --    0.07748   0.09033   0.10885   0.11628   0.12039
  Beta virt. eigenvalues --    0.12978   0.13015   0.14573   0.18768   0.19078

 Mulliken charges and spin densities:
               1          2
     1  C    0.195364  -0.041782
     2  C   -0.391849   0.322156
     3  C    0.207078  -0.016050
     4  C   -0.396759   0.282883
     5  C    0.204927  -0.033388
     6  C   -0.396297   0.304765
     7  C   -0.085858  -0.068865
     8  N    0.005485   0.105070
     9  C   -0.104479  -0.048140
    10  N    0.057459   0.063637
    11  C   -0.066168  -0.066553
    12  N   -0.012266   0.103404
    13  C   -0.070095  -0.064731
    14  N   -0.007296   0.100279
    15  C   -0.093010  -0.054434
    16  N    0.032200   0.077631
    17  C   -0.081485  -0.065656
    18  N    0.003049   0.099775
 Sum of Mulliken charges =  -1.00000   1.00000

 Dipole moment (field-independent basis, Debye):
    X=             42.9094    Y=              8.4177    Z=             -4.9238  Tot=             44.0036
 Quadrupole moment (field-independent basis, Debye-Ang):
   XX=           -553.6578   YY=           -182.9878   ZZ=           -104.4219
   XY=            -74.0924   XZ=             44.7327   YZ=              1.7068

 Normal termination of Gaussian 16 at Fri Oct 11 15:40:30 2024.
