 Gaussian 16, Revision C.01,
 Gaussian 16:  ES64L-G16RevC.01  3-Jul-2019

 ----------------------------------------------------------------------
 # wb97xd def2svp scrf=(smd,solvent=acetonitrile) g09default scf=(xqc,m
 axcycle=64) force guess=read nosymm
 ----------------------------------------------------------------------

 ----------
 Title Card
 ----------
 Symbolic Z-matrix:
 Charge = -2 Multiplicity = 1

                          Input orientation:
 ---------------------------------------------------------------------
 Center     Atomic      Atomic             Coordinates (Angstroms)
 Number     Number       Type             X           Y           Z
 ---------------------------------------------------------------------
      1          6           0       -8.944572   -0.876630    1.111822
      2          6           0       -8.943991    0.496317    1.251824
      3          6           0       -8.204117   -2.139391    0.978749
      4          6           0       -7.010554   -2.824867    0.898836
      5          6           0       -9.669520   -2.131927    0.994545
      6          6           0      -10.868721   -2.817940    0.937727
      7          6           0      -10.182762    1.241916    1.342596
      8          7           0      -11.215771    1.740897    1.407645
      9          6           0       -7.687980    1.250473    1.324488
     10          7           0       -6.658960    1.736253    1.375831
     11          6           0       -5.751967   -2.126135    0.951670
     12          7           0       -4.785353   -1.471030    0.999550
     13          6           0       -6.985731   -4.241109    0.745100
     14          7           0       -7.062754   -5.420118    0.614180
     15          6           0      -10.901006   -4.294550    0.818576
     16          7           0      -10.811121   -5.394072    0.732587
     17          6           0      -12.142534   -2.119639    0.995207
     18          7           0      -13.082481   -1.478626    1.047872
 ---------------------------------------------------------------------

 SCF Done:  E(RwB97XD) =  -784.997935091     A.U. after   14 cycles

 Alpha  occ. eigenvalues --  -14.43353 -14.43161 -14.42687 -14.42653 -14.42439
 Alpha  occ. eigenvalues --  -14.41993 -10.35533 -10.35496 -10.35473 -10.34323
 Alpha  occ. eigenvalues --  -10.34088 -10.33626 -10.33585 -10.33441 -10.33413
 Alpha  occ. eigenvalues --  -10.33379 -10.33217 -10.32888  -1.00937  -1.00111
 Alpha  occ. eigenvalues --   -0.99397  -0.99099  -0.98842  -0.97848  -0.97240
 Alpha  occ. eigenvalues --   -0.88027  -0.87471  -0.84562  -0.68358  -0.68088
 Alpha  occ. eigenvalues --   -0.64803  -0.64058  -0.63541  -0.63239  -0.51064
 Alpha  occ. eigenvalues --   -0.47686  -0.47493  -0.46275  -0.46097  -0.45299
 Alpha  occ. eigenvalues --   -0.45183  -0.45119  -0.44638  -0.44340  -0.44056
 Alpha  occ. eigenvalues --   -0.43507  -0.43342  -0.43036  -0.42755  -0.42400
 Alpha  occ. eigenvalues --   -0.42142  -0.41824  -0.40910  -0.40625  -0.40059
 Alpha  occ. eigenvalues --   -0.32130  -0.31954  -0.22767
 Alpha virt. eigenvalues --    0.06674   0.07415   0.08717   0.09774   0.10381
 Alpha virt. eigenvalues --    0.11615   0.12233   0.13554   0.14112   0.14527
 Alpha virt. eigenvalues --    0.14996   0.16120   0.20677   0.20902   0.23599

 Mulliken charges:
               1
     1  C    0.160152
     2  C   -0.494299
     3  C    0.159936
     4  C   -0.483262
     5  C    0.158186
     6  C   -0.498798
     7  C   -0.130663
     8  N   -0.039312
     9  C   -0.132314
    10  N   -0.026841
    11  C   -0.113957
    12  N   -0.056996
    13  C   -0.103201
    14  N   -0.085652
    15  C   -0.147236
    16  N    0.003053
    17  C   -0.137901
    18  N   -0.030896
 Sum of Mulliken charges =  -2.00000

 Dipole moment (field-independent basis, Debye):
    X=             85.5655    Y=             16.5294    Z=             -9.8787  Tot=             87.7056
 Quadrupole moment (field-independent basis, Debye-Ang):
   XX=           -960.2892   YY=           -224.9831   ZZ=           -113.9643
   XY=           -145.6754   XZ=             89.0047   YZ=              7.6353

 Normal termination of Gaussian 16 at Fri Oct 11 15:41:49 2024.
