 Gaussian 16, Revision C.01,
 Gaussian 16:  ES64L-G16RevC.01  3-Jul-2019

 ----------------------------------------------------------------------
 # wb97xd def2svp scrf=(smd,solvent=acetonitrile) g09default scf=(xqc,m
 axcycle=64) force guess=read nosymm
 ----------------------------------------------------------------------

 ----------
 Title Card
 ----------
 Symbolic Z-matrix:
 Charge = -1 Multiplicity = 2

                          Input orientation:
 ---------------------------------------------------------------------
 Center     Atomic      Atomic             Coordinates (Angstroms)
 Number     Number       Type             X           Y           Z
 ---------------------------------------------------------------------
      1          6           0       -8.944572   -0.876630    1.111822
      2          6           0       -8.943991    0.496317    1.251824
      3          6           0       -8.204117   -2.139391    0.978749
      4          6           0       -7.010554   -2.824867    0.898836
      5          6           0       -9.669520   -2.131927    0.994545
      6          6           0      -10.868721   -2.817940    0.937727
      7          6           0      -10.182762    1.241916    1.342596
      8          7           0      -11.215771    1.740897    1.407645
      9          6           0       -7.687980    1.250473    1.324488
     10          7           0       -6.658960    1.736253    1.375831
     11          6           0       -5.751967   -2.126135    0.951670
     12          7           0       -4.785353   -1.471030    0.999550
     13          6           0       -6.985731   -4.241109    0.745100
     14          7           0       -7.062754   -5.420118    0.614180
     15          6           0      -10.901006   -4.294550    0.818576
     16          7           0      -10.811121   -5.394072    0.732587
     17          6           0      -12.142534   -2.119639    0.995207
     18          7           0      -13.082481   -1.478626    1.047872
 ---------------------------------------------------------------------

 SCF Done:  E(UwB97XD) =  -784.835849440     A.U. after   19 cycles

 Alpha  occ. eigenvalues --  -14.46536 -14.46173 -14.45734 -14.45565 -14.45510
 Alpha  occ. eigenvalues --  -14.44803 -10.38955 -10.38911 -10.38873 -10.38825
 Alpha  occ. eigenvalues --  -10.38739 -10.38363 -10.36718 -10.36411 -10.35996
 Alpha  occ. eigenvalues --  -10.35896 -10.35785 -10.35187  -1.03799  -1.02996
 Alpha  occ. eigenvalues --   -1.02113  -1.01900  -1.01435  -1.00870  -1.00005
 Alpha  occ. eigenvalues --   -0.91850  -0.91440  -0.88680  -0.71859  -0.71633
 Alpha  occ. eigenvalues --   -0.68310  -0.67603  -0.67222  -0.66819  -0.54423
 Alpha  occ. eigenvalues --   -0.50763  -0.50608  -0.49049  -0.48874  -0.47662
 Alpha  occ. eigenvalues --   -0.47515  -0.47385  -0.46973  -0.46775  -0.46584
 Alpha  occ. eigenvalues --   -0.46069  -0.45703  -0.45675  -0.45244  -0.44835
 Alpha  occ. eigenvalues --   -0.44552  -0.44388  -0.43377  -0.43195  -0.42588
 Alpha  occ. eigenvalues --   -0.35965  -0.35673  -0.27151
 Alpha virt. eigenvalues --    0.03873   0.04651   0.06341   0.07458   0.08020
 Alpha virt. eigenvalues --    0.09050   0.09799   0.11186   0.11669   0.12165
 Alpha virt. eigenvalues --    0.12593   0.14259   0.18744   0.19027   0.20446

  Beta  occ. eigenvalues --  -14.46332 -14.45999 -14.45563 -14.45413 -14.45341
  Beta  occ. eigenvalues --  -14.44672 -10.38971 -10.38906 -10.38879 -10.38518
  Beta  occ. eigenvalues --  -10.38380 -10.38031 -10.36814 -10.36496 -10.36080
  Beta  occ. eigenvalues --  -10.35974 -10.35869 -10.35257  -1.03467  -1.02700
  Beta  occ. eigenvalues --   -1.01815  -1.01592  -1.01153  -1.00529  -0.99669
  Beta  occ. eigenvalues --   -0.91122  -0.90649  -0.87658  -0.71718  -0.71470
  Beta  occ. eigenvalues --   -0.68081  -0.67349  -0.67035  -0.66545  -0.53473
  Beta  occ. eigenvalues --   -0.49532  -0.49358  -0.48905  -0.48689  -0.47313
  Beta  occ. eigenvalues --   -0.47193  -0.47089  -0.46680  -0.46587  -0.46389
  Beta  occ. eigenvalues --   -0.45605  -0.45232  -0.44733  -0.44686  -0.44477
  Beta  occ. eigenvalues --   -0.44412  -0.43541  -0.43254  -0.43079  -0.42436
  Beta  occ. eigenvalues --   -0.33200  -0.33024
  Beta virt. eigenvalues --   -0.09605   0.04897   0.05562   0.06451   0.07545
  Beta virt. eigenvalues --    0.08091   0.09049   0.10748   0.11717   0.12045
  Beta virt. eigenvalues --    0.12650   0.12946   0.14543   0.19031   0.19267

 Mulliken charges and spin densities:
               1          2
     1  C    0.190983  -0.044238
     2  C   -0.385163   0.314903
     3  C    0.196647  -0.025066
     4  C   -0.384770   0.286095
     5  C    0.184944  -0.054589
     6  C   -0.383708   0.331853
     7  C   -0.083169  -0.066149
     8  N    0.011123   0.099262
     9  C   -0.084967  -0.061160
    10  N    0.020235   0.088322
    11  C   -0.067243  -0.066261
    12  N   -0.005605   0.101349
    13  C   -0.055956  -0.075381
    14  N   -0.029189   0.118690
    15  C   -0.099030  -0.055398
    16  N    0.045296   0.076154
    17  C   -0.089543  -0.066390
    18  N    0.019114   0.098003
 Sum of Mulliken charges =  -1.00000   1.00000

 Dipole moment (field-independent basis, Debye):
    X=             42.5811    Y=              8.2909    Z=             -4.9355  Tot=             43.6606
 Quadrupole moment (field-independent basis, Debye-Ang):
   XX=           -547.5003   YY=           -183.2784   ZZ=           -104.4685
   XY=            -72.4689   XZ=             44.4925   YZ=              1.5100

 Normal termination of Gaussian 16 at Fri Oct 11 15:41:26 2024.
