 Gaussian 16, Revision C.01,
 Gaussian 16:  ES64L-G16RevC.01  3-Jul-2019

 ----------------------------------------------------------------------
 # wb97xd def2svp scrf=(smd,solvent=acetonitrile) g09default scf=(xqc,m
 axcycle=64) force guess=read nosymm
 ----------------------------------------------------------------------

 ----------
 Title Card
 ----------
 Symbolic Z-matrix:
 Charge = -2 Multiplicity = 1

                          Input orientation:
 ---------------------------------------------------------------------
 Center     Atomic      Atomic             Coordinates (Angstroms)
 Number     Number       Type             X           Y           Z
 ---------------------------------------------------------------------
      1          6           0       -8.945914   -0.858990    1.112779
      2          6           0       -8.944881    0.486138    1.251035
      3          6           0       -8.187852   -2.148630    0.979346
      4          6           0       -7.016587   -2.820267    0.899174
      5          6           0       -9.683157   -2.138787    0.993804
      6          6           0      -10.866148   -2.816486    0.937753
      7          6           0      -10.197713    1.254822    1.343721
      8          7           0      -11.224424    1.746306    1.409354
      9          6           0       -7.675787    1.265721    1.326039
     10          7           0       -6.646666    1.738987    1.376817
     11          6           0       -5.737510   -2.122589    0.951732
     12          7           0       -4.775809   -1.466706    0.998918
     13          6           0       -6.983580   -4.259544    0.742636
     14          7           0       -7.060780   -5.427945    0.611179
     15          6           0      -10.908527   -4.291912    0.819738
     16          7           0      -10.805423   -5.422162    0.732687
     17          6           0      -12.155229   -2.116709    0.995249
     18          7           0      -13.093907   -1.471423    1.046843
 ---------------------------------------------------------------------

 SCF Done:  E(RwB97XD) =  -784.984138432     A.U. after   14 cycles

 Alpha  occ. eigenvalues --  -14.43382 -14.43241 -14.42743 -14.42720 -14.42662
 Alpha  occ. eigenvalues --  -14.42596 -10.35390 -10.35369 -10.35356 -10.34338
 Alpha  occ. eigenvalues --  -10.34168 -10.33705 -10.33670 -10.33645 -10.33609
 Alpha  occ. eigenvalues --  -10.33543 -10.33515 -10.33439  -1.00279  -0.99915
 Alpha  occ. eigenvalues --   -0.99283  -0.99139  -0.99093  -0.97845  -0.96771
 Alpha  occ. eigenvalues --   -0.88110  -0.87583  -0.83857  -0.68349  -0.68011
 Alpha  occ. eigenvalues --   -0.64463  -0.63732  -0.63519  -0.63028  -0.50720
 Alpha  occ. eigenvalues --   -0.47490  -0.47428  -0.46156  -0.46002  -0.45398
 Alpha  occ. eigenvalues --   -0.45283  -0.45203  -0.44711  -0.44001  -0.43896
 Alpha  occ. eigenvalues --   -0.43358  -0.43097  -0.42893  -0.42791  -0.42265
 Alpha  occ. eigenvalues --   -0.42093  -0.42046  -0.41066  -0.40649  -0.40143
 Alpha  occ. eigenvalues --   -0.32603  -0.32397  -0.22162
 Alpha virt. eigenvalues --    0.06696   0.07347   0.08922   0.09954   0.09998
 Alpha virt. eigenvalues --    0.10763   0.12416   0.13645   0.13959   0.14023
 Alpha virt. eigenvalues --    0.14338   0.16056   0.20434   0.20589   0.23097

 Mulliken charges:
               1
     1  C    0.171798
     2  C   -0.500667
     3  C    0.167348
     4  C   -0.493670
     5  C    0.164752
     6  C   -0.497992
     7  C   -0.135397
     8  N   -0.031868
     9  C   -0.132920
    10  N   -0.024807
    11  C   -0.116207
    12  N   -0.054209
    13  C   -0.111278
    14  N   -0.071534
    15  C   -0.133196
    16  N   -0.031110
    17  C   -0.135338
    18  N   -0.033703
 Sum of Mulliken charges =  -2.00000

 Dipole moment (field-independent basis, Debye):
    X=             85.7786    Y=             16.8655    Z=             -9.8497  Tot=             87.9740
 Quadrupole moment (field-independent basis, Debye-Ang):
   XX=           -963.4940   YY=           -225.6112   ZZ=           -114.1216
   XY=           -149.8104   XZ=             88.8972   YZ=              8.0165

 Normal termination of Gaussian 16 at Fri Oct 11 15:42:44 2024.
