 Gaussian 16, Revision C.01,
 Gaussian 16:  ES64L-G16RevC.01  3-Jul-2019

 ----------------------------------------------------------------------
 # wb97xd def2svp scrf=(smd,solvent=acetonitrile) g09default scf=(xqc,m
 axcycle=64) force guess=read nosymm
 ----------------------------------------------------------------------

 ----------
 Title Card
 ----------
 Symbolic Z-matrix:
 Charge = -1 Multiplicity = 2

                          Input orientation:
 ---------------------------------------------------------------------
 Center     Atomic      Atomic             Coordinates (Angstroms)
 Number     Number       Type             X           Y           Z
 ---------------------------------------------------------------------
      1          6           0       -8.945914   -0.858990    1.112779
      2          6           0       -8.944881    0.486138    1.251035
      3          6           0       -8.187852   -2.148630    0.979346
      4          6           0       -7.016587   -2.820267    0.899174
      5          6           0       -9.683157   -2.138787    0.993804
      6          6           0      -10.866148   -2.816486    0.937753
      7          6           0      -10.197713    1.254822    1.343721
      8          7           0      -11.224424    1.746306    1.409354
      9          6           0       -7.675787    1.265721    1.326039
     10          7           0       -6.646666    1.738987    1.376817
     11          6           0       -5.737510   -2.122589    0.951732
     12          7           0       -4.775809   -1.466706    0.998918
     13          6           0       -6.983580   -4.259544    0.742636
     14          7           0       -7.060780   -5.427945    0.611179
     15          6           0      -10.908527   -4.291912    0.819738
     16          7           0      -10.805423   -5.422162    0.732687
     17          6           0      -12.155229   -2.116709    0.995249
     18          7           0      -13.093907   -1.471423    1.046843
 ---------------------------------------------------------------------

 SCF Done:  E(UwB97XD) =  -784.828691590     A.U. after   18 cycles

 Alpha  occ. eigenvalues --  -14.46426 -14.46180 -14.45625 -14.45593 -14.45590
 Alpha  occ. eigenvalues --  -14.45540 -10.38982 -10.38936 -10.38915 -10.38848
 Alpha  occ. eigenvalues --  -10.38810 -10.38554 -10.36683 -10.36467 -10.35959
 Alpha  occ. eigenvalues --  -10.35954 -10.35934 -10.35913  -1.03165  -1.02529
 Alpha  occ. eigenvalues --   -1.01917  -1.01755  -1.01643  -1.00499  -1.00182
 Alpha  occ. eigenvalues --   -0.91935  -0.91538  -0.88009  -0.71898  -0.71596
 Alpha  occ. eigenvalues --   -0.67938  -0.67280  -0.67233  -0.66546  -0.54141
 Alpha  occ. eigenvalues --   -0.50538  -0.50506  -0.48842  -0.48628  -0.47688
 Alpha  occ. eigenvalues --   -0.47527  -0.47472  -0.47017  -0.46462  -0.46400
 Alpha  occ. eigenvalues --   -0.45690  -0.45582  -0.45446  -0.45346  -0.44595
 Alpha  occ. eigenvalues --   -0.44569  -0.44530  -0.43464  -0.43281  -0.42746
 Alpha  occ. eigenvalues --   -0.36347  -0.36130  -0.26506
 Alpha virt. eigenvalues --    0.03832   0.04512   0.06607   0.07647   0.07718
 Alpha virt. eigenvalues --    0.08134   0.10058   0.11330   0.11597   0.11641
 Alpha virt. eigenvalues --    0.11913   0.14170   0.18404   0.18635   0.19976

  Beta  occ. eigenvalues --  -14.46247 -14.46018 -14.45475 -14.45442 -14.45434
  Beta  occ. eigenvalues --  -14.45403 -10.38926 -10.38887 -10.38855 -10.38612
  Beta  occ. eigenvalues --  -10.38552 -10.38228 -10.36770 -10.36548 -10.36036
  Beta  occ. eigenvalues --  -10.36031 -10.36007 -10.35993  -1.02831  -1.02255
  Beta  occ. eigenvalues --   -1.01604  -1.01509  -1.01385  -1.00190  -0.99812
  Beta  occ. eigenvalues --   -0.91237  -0.90782  -0.86991  -0.71722  -0.71405
  Beta  occ. eigenvalues --   -0.67705  -0.67069  -0.66987  -0.66277  -0.53100
  Beta  occ. eigenvalues --   -0.49315  -0.49283  -0.48665  -0.48421  -0.47368
  Beta  occ. eigenvalues --   -0.47230  -0.47177  -0.46726  -0.46303  -0.46254
  Beta  occ. eigenvalues --   -0.45597  -0.44789  -0.44661  -0.44461  -0.44456
  Beta  occ. eigenvalues --   -0.44385  -0.43809  -0.43348  -0.43162  -0.42608
  Beta  occ. eigenvalues --   -0.33863  -0.33644
  Beta virt. eigenvalues --   -0.08893   0.05013   0.05608   0.06708   0.07733
  Beta virt. eigenvalues --    0.07789   0.08134   0.10954   0.11656   0.11972
  Beta virt. eigenvalues --    0.12211   0.12343   0.14461   0.18717   0.18907

 Mulliken charges and spin densities:
               1          2
     1  C    0.206315  -0.039457
     2  C   -0.393180   0.312462
     3  C    0.208480  -0.019479
     4  C   -0.396371   0.285266
     5  C    0.199275  -0.033651
     6  C   -0.387831   0.320975
     7  C   -0.088793  -0.059897
     8  N    0.015489   0.087307
     9  C   -0.086093  -0.056611
    10  N    0.020080   0.079255
    11  C   -0.069721  -0.062410
    12  N   -0.004214   0.094279
    13  C   -0.064724  -0.067422
    14  N   -0.018542   0.104032
    15  C   -0.084710  -0.060345
    16  N    0.016376   0.086447
    17  C   -0.087111  -0.062331
    18  N    0.015275   0.091581
 Sum of Mulliken charges =  -1.00000   1.00000

 Dipole moment (field-independent basis, Debye):
    X=             42.7316    Y=              8.4803    Z=             -4.9188  Tot=             43.8418
 Quadrupole moment (field-independent basis, Debye-Ang):
   XX=           -550.0347   YY=           -183.7395   ZZ=           -104.6095
   XY=            -74.8493   XZ=             44.4634   YZ=              1.7136

 Normal termination of Gaussian 16 at Fri Oct 11 15:42:21 2024.
