 Gaussian 16, Revision C.01,
 Gaussian 16:  ES64L-G16RevC.01  3-Jul-2019

 ----------------------------------------------------------------------
 # wb97xd def2svp scrf=(smd,solvent=acetonitrile) g09default scf=(xqc,m
 axcycle=64) force guess=read nosymm
 ----------------------------------------------------------------------

 ----------
 Title Card
 ----------
 Symbolic Z-matrix:
 Charge = -2 Multiplicity = 1

                          Input orientation:
 ---------------------------------------------------------------------
 Center     Atomic      Atomic             Coordinates (Angstroms)
 Number     Number       Type             X           Y           Z
 ---------------------------------------------------------------------
      1          6           0       -8.945594   -0.859706    1.111981
      2          6           0       -8.944602    0.482015    1.250414
      3          6           0       -8.193726   -2.145616    0.979642
      4          6           0       -7.023615   -2.815142    0.899338
      5          6           0       -9.679424   -2.138075    0.994256
      6          6           0      -10.862342   -2.814771    0.938103
      7          6           0      -10.181644    1.249163    1.343279
      8          7           0      -11.233158    1.751029    1.410289
      9          6           0       -7.677105    1.269872    1.325519
     10          7           0       -6.653673    1.731874    1.376684
     11          6           0       -5.729467   -2.121626    0.952185
     12          7           0       -4.787351   -1.475463    0.998152
     13          6           0       -6.983282   -4.278124    0.740754
     14          7           0       -7.057553   -5.405841    0.613499
     15          6           0      -10.915333   -4.277101    0.821592
     16          7           0      -10.800054   -5.426845    0.733074
     17          6           0      -12.142783   -2.128660    0.993288
     18          7           0      -13.099188   -1.467160    1.046757
 ---------------------------------------------------------------------

 SCF Done:  E(RwB97XD) =  -784.985852803     A.U. after   13 cycles

 Alpha  occ. eigenvalues --  -14.43134 -14.42997 -14.42950 -14.42818 -14.42699
 Alpha  occ. eigenvalues --  -14.42593 -10.35342 -10.35287 -10.35228 -10.34087
 Alpha  occ. eigenvalues --  -10.33943 -10.33905 -10.33724 -10.33621 -10.33598
 Alpha  occ. eigenvalues --  -10.33547 -10.33469 -10.33334  -1.00468  -1.00058
 Alpha  occ. eigenvalues --   -0.99281  -0.99138  -0.98466  -0.98134  -0.96993
 Alpha  occ. eigenvalues --   -0.87939  -0.87762  -0.84005  -0.68317  -0.68228
 Alpha  occ. eigenvalues --   -0.64032  -0.63832  -0.63712  -0.63091  -0.50815
 Alpha  occ. eigenvalues --   -0.47576  -0.47356  -0.46176  -0.46037  -0.45373
 Alpha  occ. eigenvalues --   -0.45264  -0.45196  -0.44696  -0.44016  -0.44000
 Alpha  occ. eigenvalues --   -0.43367  -0.43157  -0.42965  -0.42528  -0.42242
 Alpha  occ. eigenvalues --   -0.42221  -0.41816  -0.41220  -0.40630  -0.40166
 Alpha  occ. eigenvalues --   -0.32689  -0.32298  -0.22182
 Alpha virt. eigenvalues --    0.07032   0.07081   0.09242   0.09668   0.09882
 Alpha virt. eigenvalues --    0.10812   0.12946   0.13499   0.13799   0.14063
 Alpha virt. eigenvalues --    0.14306   0.16125   0.20518   0.20650   0.23082

 Mulliken charges:
               1
     1  C    0.176149
     2  C   -0.498683
     3  C    0.173911
     4  C   -0.506536
     5  C    0.168162
     6  C   -0.489951
     7  C   -0.124158
     8  N   -0.062848
     9  C   -0.135429
    10  N   -0.014300
    11  C   -0.130548
    12  N   -0.032369
    13  C   -0.136122
    14  N   -0.025081
    15  C   -0.121975
    16  N   -0.055163
    17  C   -0.124271
    18  N   -0.060789
 Sum of Mulliken charges =  -2.00000

 Dipole moment (field-independent basis, Debye):
    X=             86.5920    Y=             16.6024    Z=             -9.8892  Tot=             88.7221
 Quadrupole moment (field-independent basis, Debye-Ang):
   XX=           -978.2733   YY=           -224.3610   ZZ=           -114.1382
   XY=           -148.9635   XZ=             90.0738   YZ=              7.8521

 Normal termination of Gaussian 16 at Fri Oct 11 15:43:40 2024.
