 Gaussian 16, Revision C.01,
 Gaussian 16:  ES64L-G16RevC.01  3-Jul-2019

 ----------------------------------------------------------------------
 # wb97xd def2svp scrf=(smd,solvent=acetonitrile) g09default scf=(xqc,m
 axcycle=64) force guess=read nosymm
 ----------------------------------------------------------------------

 ----------
 Title Card
 ----------
 Symbolic Z-matrix:
 Charge = -1 Multiplicity = 2

                          Input orientation:
 ---------------------------------------------------------------------
 Center     Atomic      Atomic             Coordinates (Angstroms)
 Number     Number       Type             X           Y           Z
 ---------------------------------------------------------------------
      1          6           0       -8.945594   -0.859706    1.111981
      2          6           0       -8.944602    0.482015    1.250414
      3          6           0       -8.193726   -2.145616    0.979642
      4          6           0       -7.023615   -2.815142    0.899338
      5          6           0       -9.679424   -2.138075    0.994256
      6          6           0      -10.862342   -2.814771    0.938103
      7          6           0      -10.181644    1.249163    1.343279
      8          7           0      -11.233158    1.751029    1.410289
      9          6           0       -7.677105    1.269872    1.325519
     10          7           0       -6.653673    1.731874    1.376684
     11          6           0       -5.729467   -2.121626    0.952185
     12          7           0       -4.787351   -1.475463    0.998152
     13          6           0       -6.983282   -4.278124    0.740754
     14          7           0       -7.057553   -5.405841    0.613499
     15          6           0      -10.915333   -4.277101    0.821592
     16          7           0      -10.800054   -5.426845    0.733074
     17          6           0      -12.142783   -2.128660    0.993288
     18          7           0      -13.099188   -1.467160    1.046757
 ---------------------------------------------------------------------

 SCF Done:  E(UwB97XD) =  -784.830169599     A.U. after   18 cycles

 Alpha  occ. eigenvalues --  -14.46188 -14.46081 -14.46037 -14.45696 -14.45541
 Alpha  occ. eigenvalues --  -14.45317 -10.38864 -10.38813 -10.38797 -10.38735
 Alpha  occ. eigenvalues --  -10.38728 -10.38690 -10.36454 -10.36333 -10.36328
 Alpha  occ. eigenvalues --  -10.36010 -10.35870 -10.35700  -1.03283  -1.02621
 Alpha  occ. eigenvalues --   -1.02106  -1.01602  -1.01173  -1.00785  -1.00390
 Alpha  occ. eigenvalues --   -0.91803  -0.91693  -0.88146  -0.71911  -0.71782
 Alpha  occ. eigenvalues --   -0.67624  -0.67418  -0.67291  -0.66589  -0.54239
 Alpha  occ. eigenvalues --   -0.50590  -0.50472  -0.48917  -0.48636  -0.47646
 Alpha  occ. eigenvalues --   -0.47526  -0.47489  -0.47007  -0.46509  -0.46400
 Alpha  occ. eigenvalues --   -0.45756  -0.45729  -0.45347  -0.45099  -0.44793
 Alpha  occ. eigenvalues --   -0.44665  -0.44312  -0.43605  -0.43177  -0.42806
 Alpha  occ. eigenvalues --   -0.36382  -0.36090  -0.26530
 Alpha virt. eigenvalues --    0.04152   0.04276   0.06877   0.07340   0.07629
 Alpha virt. eigenvalues --    0.08193   0.10519   0.11217   0.11483   0.11649
 Alpha virt. eigenvalues --    0.11895   0.14243   0.18528   0.18676   0.19955

  Beta  occ. eigenvalues --  -14.46012 -14.45901 -14.45870 -14.45547 -14.45397
  Beta  occ. eigenvalues --  -14.45190 -10.38825 -10.38800 -10.38773 -10.38500
  Beta  occ. eigenvalues --  -10.38407 -10.38341 -10.36541 -10.36420 -10.36412
  Beta  occ. eigenvalues --  -10.36086 -10.35944 -10.35768  -1.02954  -1.02363
  Beta  occ. eigenvalues --   -1.01794  -1.01354  -1.00870  -1.00492  -1.00013
  Beta  occ. eigenvalues --   -0.91087  -0.90950  -0.87134  -0.71730  -0.71602
  Beta  occ. eigenvalues --   -0.67390  -0.67200  -0.67048  -0.66325  -0.53205
  Beta  occ. eigenvalues --   -0.49394  -0.49224  -0.48728  -0.48444  -0.47326
  Beta  occ. eigenvalues --   -0.47217  -0.47195  -0.46716  -0.46333  -0.46274
  Beta  occ. eigenvalues --   -0.45630  -0.44841  -0.44656  -0.44520  -0.44224
  Beta  occ. eigenvalues --   -0.44172  -0.44016  -0.43493  -0.43050  -0.42672
  Beta  occ. eigenvalues --   -0.33958  -0.33529
  Beta virt. eigenvalues --   -0.08921   0.05297   0.05384   0.06982   0.07424
  Beta virt. eigenvalues --    0.07707   0.08194   0.11452   0.11702   0.11947
  Beta virt. eigenvalues --    0.12067   0.12203   0.14524   0.18820   0.18956

 Mulliken charges and spin densities:
               1          2
     1  C    0.211427  -0.036361
     2  C   -0.393836   0.306221
     3  C    0.209344  -0.037176
     4  C   -0.402464   0.302226
     5  C    0.205525  -0.021135
     6  C   -0.384372   0.310588
     7  C   -0.077247  -0.067761
     8  N   -0.010417   0.102189
     9  C   -0.088722  -0.053397
    10  N    0.028517   0.073730
    11  C   -0.083898  -0.059209
    12  N    0.014799   0.086786
    13  C   -0.090034  -0.057040
    14  N    0.020694   0.083158
    15  C   -0.072879  -0.065726
    16  N   -0.003657   0.097138
    17  C   -0.075537  -0.068883
    18  N   -0.007242   0.104653
 Sum of Mulliken charges =  -1.00000   1.00000

 Dipole moment (field-independent basis, Debye):
    X=             43.2432    Y=              8.3103    Z=             -4.9449  Tot=             44.3112
 Quadrupole moment (field-independent basis, Debye-Ang):
   XX=           -559.2192   YY=           -182.9637   ZZ=           -104.6067
   XY=            -74.3585   XZ=             45.2064   YZ=              1.5988

 Normal termination of Gaussian 16 at Fri Oct 11 15:43:16 2024.
