 Gaussian 16, Revision C.01,
 Gaussian 16:  ES64L-G16RevC.01  3-Jul-2019

 ----------------------------------------------------------------------
 # wb97xd def2svp scrf=(smd,solvent=acetonitrile) g09default scf=(xqc,m
 axcycle=64) force guess=read nosymm
 ----------------------------------------------------------------------

 ----------
 Title Card
 ----------
 Symbolic Z-matrix:
 Charge = -2 Multiplicity = 1

                          Input orientation:
 ---------------------------------------------------------------------
 Center     Atomic      Atomic             Coordinates (Angstroms)
 Number     Number       Type             X           Y           Z
 ---------------------------------------------------------------------
      1          6           0       -8.941031   -0.866404    1.111162
      2          6           0       -8.941082    0.496925    1.251544
      3          6           0       -8.200761   -2.139001    0.980663
      4          6           0       -7.017788   -2.816312    0.899216
      5          6           0       -9.687860   -2.145417    0.993757
      6          6           0      -10.856364   -2.813802    0.938290
      7          6           0      -10.183972    1.251776    1.343653
      8          7           0      -11.233096    1.752410    1.411183
      9          6           0       -7.678770    1.272122    1.325233
     10          7           0       -6.654787    1.728512    1.377116
     11          6           0       -5.737783   -2.130647    0.951463
     12          7           0       -4.775986   -1.469604    0.998038
     13          6           0       -6.981940   -4.279921    0.740392
     14          7           0       -7.055699   -5.409539    0.611812
     15          6           0      -10.917814   -4.287402    0.821716
     16          7           0      -10.797843   -5.418537    0.735360
     17          6           0      -12.142884   -2.131201    0.992362
     18          7           0      -13.104434   -1.464136    1.045844
 ---------------------------------------------------------------------

 SCF Done:  E(RwB97XD) =  -784.988540958     A.U. after   13 cycles

 Alpha  occ. eigenvalues --  -14.43296 -14.43100 -14.42971 -14.42920 -14.42696
 Alpha  occ. eigenvalues --  -14.42404 -10.35442 -10.35411 -10.35387 -10.34223
 Alpha  occ. eigenvalues --  -10.34073 -10.33962 -10.33777 -10.33623 -10.33619
 Alpha  occ. eigenvalues --  -10.33552 -10.33466 -10.33302  -1.00432  -0.99991
 Alpha  occ. eigenvalues --   -0.99670  -0.98609  -0.98306  -0.98224  -0.97050
 Alpha  occ. eigenvalues --   -0.87971  -0.87616  -0.84094  -0.68463  -0.68098
 Alpha  occ. eigenvalues --   -0.64043  -0.63935  -0.63640  -0.63147  -0.50824
 Alpha  occ. eigenvalues --   -0.47488  -0.47432  -0.46146  -0.46123  -0.45395
 Alpha  occ. eigenvalues --   -0.45260  -0.45192  -0.44705  -0.44109  -0.43825
 Alpha  occ. eigenvalues --   -0.43526  -0.43234  -0.42702  -0.42478  -0.42351
 Alpha  occ. eigenvalues --   -0.42159  -0.41831  -0.41034  -0.40667  -0.40194
 Alpha  occ. eigenvalues --   -0.32529  -0.32264  -0.22327
 Alpha virt. eigenvalues --    0.06844   0.07060   0.09224   0.09420   0.09813
 Alpha virt. eigenvalues --    0.10862   0.13043   0.13215   0.13761   0.13959
 Alpha virt. eigenvalues --    0.14311   0.16128   0.20581   0.20652   0.23073

 Mulliken charges:
               1
     1  C    0.162465
     2  C   -0.495059
     3  C    0.165993
     4  C   -0.497981
     5  C    0.180391
     6  C   -0.491914
     7  C   -0.124285
     8  N   -0.062343
     9  C   -0.137031
    10  N   -0.013515
    11  C   -0.118171
    12  N   -0.063240
    13  C   -0.133206
    14  N   -0.028718
    15  C   -0.126773
    16  N   -0.031382
    17  C   -0.117660
    18  N   -0.067572
 Sum of Mulliken charges =  -2.00000

 Dipole moment (field-independent basis, Debye):
    X=             85.8645    Y=             16.1367    Z=             -9.9253  Tot=             87.9296
 Quadrupole moment (field-independent basis, Debye-Ang):
   XX=           -966.1364   YY=           -222.4017   ZZ=           -114.2560
   XY=           -142.7591   XZ=             89.7370   YZ=              7.4413

 Normal termination of Gaussian 16 at Fri Oct 11 15:44:32 2024.
