 Gaussian 16, Revision C.01,
 Gaussian 16:  ES64L-G16RevC.01  3-Jul-2019

 ----------------------------------------------------------------------
 # wb97xd def2svp scrf=(smd,solvent=acetonitrile) g09default scf=(xqc,m
 axcycle=64) force guess=read nosymm
 ----------------------------------------------------------------------

 ----------
 Title Card
 ----------
 Symbolic Z-matrix:
 Charge = -1 Multiplicity = 2

                          Input orientation:
 ---------------------------------------------------------------------
 Center     Atomic      Atomic             Coordinates (Angstroms)
 Number     Number       Type             X           Y           Z
 ---------------------------------------------------------------------
      1          6           0       -8.941031   -0.866404    1.111162
      2          6           0       -8.941082    0.496925    1.251544
      3          6           0       -8.200761   -2.139001    0.980663
      4          6           0       -7.017788   -2.816312    0.899216
      5          6           0       -9.687860   -2.145417    0.993757
      6          6           0      -10.856364   -2.813802    0.938290
      7          6           0      -10.183972    1.251776    1.343653
      8          7           0      -11.233096    1.752410    1.411183
      9          6           0       -7.678770    1.272122    1.325233
     10          7           0       -6.654787    1.728512    1.377116
     11          6           0       -5.737783   -2.130647    0.951463
     12          7           0       -4.775986   -1.469604    0.998038
     13          6           0       -6.981940   -4.279921    0.740392
     14          7           0       -7.055699   -5.409539    0.611812
     15          6           0      -10.917814   -4.287402    0.821716
     16          7           0      -10.797843   -5.418537    0.735360
     17          6           0      -12.142884   -2.131201    0.992362
     18          7           0      -13.104434   -1.464136    1.045844
 ---------------------------------------------------------------------

 SCF Done:  E(UwB97XD) =  -784.831276361     A.U. after   18 cycles

 Alpha  occ. eigenvalues --  -14.46306 -14.46201 -14.46096 -14.45707 -14.45583
 Alpha  occ. eigenvalues --  -14.45235 -10.38944 -10.38887 -10.38868 -10.38850
 Alpha  occ. eigenvalues --  -10.38754 -10.38745 -10.36553 -10.36466 -10.36380
 Alpha  occ. eigenvalues --  -10.36013 -10.35927 -10.35600  -1.03304  -1.02629
 Alpha  occ. eigenvalues --   -1.02238  -1.01411  -1.00987  -1.00838  -1.00322
 Alpha  occ. eigenvalues --   -0.91810  -0.91556  -0.88223  -0.71997  -0.71673
 Alpha  occ. eigenvalues --   -0.67600  -0.67464  -0.67270  -0.66668  -0.54227
 Alpha  occ. eigenvalues --   -0.50542  -0.50509  -0.48867  -0.48778  -0.47649
 Alpha  occ. eigenvalues --   -0.47568  -0.47486  -0.47016  -0.46574  -0.46380
 Alpha  occ. eigenvalues --   -0.45827  -0.45747  -0.45220  -0.44939  -0.44914
 Alpha  occ. eigenvalues --   -0.44702  -0.44264  -0.43436  -0.43195  -0.42785
 Alpha  occ. eigenvalues --   -0.36218  -0.36062  -0.26679
 Alpha virt. eigenvalues --    0.04049   0.04211   0.06889   0.07130   0.07470
 Alpha virt. eigenvalues --    0.08267   0.10735   0.10848   0.11381   0.11532
 Alpha virt. eigenvalues --    0.11920   0.14241   0.18587   0.18687   0.19955

  Beta  occ. eigenvalues --  -14.46132 -14.46020 -14.45915 -14.45567 -14.45436
  Beta  occ. eigenvalues --  -14.45099 -10.38924 -10.38892 -10.38869 -10.38559
  Beta  occ. eigenvalues --  -10.38419 -10.38405 -10.36639 -10.36555 -10.36470
  Beta  occ. eigenvalues --  -10.36086 -10.36003 -10.35672  -1.02969  -1.02357
  Beta  occ. eigenvalues --   -1.01965  -1.01108  -1.00684  -1.00546  -0.99959
  Beta  occ. eigenvalues --   -0.91097  -0.90797  -0.87208  -0.71828  -0.71499
  Beta  occ. eigenvalues --   -0.67369  -0.67226  -0.67052  -0.66401  -0.53212
  Beta  occ. eigenvalues --   -0.49320  -0.49279  -0.48680  -0.48592  -0.47340
  Beta  occ. eigenvalues --   -0.47246  -0.47177  -0.46731  -0.46413  -0.46208
  Beta  occ. eigenvalues --   -0.45664  -0.44920  -0.44547  -0.44406  -0.44245
  Beta  occ. eigenvalues --   -0.44129  -0.44031  -0.43317  -0.43072  -0.42650
  Beta  occ. eigenvalues --   -0.33772  -0.33438
  Beta virt. eigenvalues --   -0.09090   0.05130   0.05316   0.06983   0.07218
  Beta virt. eigenvalues --    0.07560   0.08266   0.11577   0.11617   0.11717
  Beta virt. eigenvalues --    0.11973   0.12163   0.14523   0.18881   0.18963

 Mulliken charges and spin densities:
               1          2
     1  C    0.197228  -0.035949
     2  C   -0.385871   0.318693
     3  C    0.201832  -0.030256
     4  C   -0.392072   0.307766
     5  C    0.215209  -0.035622
     6  C   -0.391341   0.296365
     7  C   -0.076103  -0.070106
     8  N   -0.008839   0.105612
     9  C   -0.088752  -0.056315
    10  N    0.030789   0.079026
    11  C   -0.069949  -0.069523
    12  N   -0.009894   0.105445
    13  C   -0.086201  -0.058820
    14  N    0.018063   0.085508
    15  C   -0.080852  -0.056823
    16  N    0.014028   0.081062
    17  C   -0.071774  -0.067557
    18  N   -0.015499   0.101493
 Sum of Mulliken charges =  -1.00000   1.00000

 Dipole moment (field-independent basis, Debye):
    X=             42.9401    Y=              8.1428    Z=             -4.9572  Tot=             43.9856
 Quadrupole moment (field-independent basis, Debye-Ang):
   XX=           -554.3575   YY=           -182.0711   ZZ=           -104.6822
   XY=            -71.9252   XZ=             45.0520   YZ=              1.4639

 Normal termination of Gaussian 16 at Fri Oct 11 15:44:10 2024.
