 Gaussian 16, Revision C.01,
 Gaussian 16:  ES64L-G16RevC.01  3-Jul-2019

 ----------------------------------------------------------------------
 # wb97xd def2svp scrf=(smd,solvent=acetonitrile) g09default scf=(xqc,m
 axcycle=64) force guess=read nosymm
 ----------------------------------------------------------------------

 ----------
 Title Card
 ----------
 Symbolic Z-matrix:
 Charge = -2 Multiplicity = 1

                          Input orientation:
 ---------------------------------------------------------------------
 Center     Atomic      Atomic             Coordinates (Angstroms)
 Number     Number       Type             X           Y           Z
 ---------------------------------------------------------------------
      1          6           0       -8.938730   -0.876207    1.112264
      2          6           0       -8.944331    0.537510    1.255201
      3          6           0       -8.204788   -2.134460    0.981279
      4          6           0       -6.986024   -2.837040    0.898521
      5          6           0       -9.683044   -2.142428    0.993425
      6          6           0      -10.892974   -2.834279    0.936299
      7          6           0      -10.172933    1.250473    1.342709
      8          7           0      -11.261971    1.766624    1.413905
      9          6           0       -7.667022    1.281106    1.327357
     10          7           0       -6.645654    1.734359    1.377883
     11          6           0       -5.718518   -2.120455    0.950993
     12          7           0       -4.769398   -1.465573    0.997500
     13          6           0       -6.978359   -4.278285    0.739317
     14          7           0       -7.057804   -5.436582    0.606558
     15          6           0      -10.916629   -4.306398    0.820574
     16          7           0      -10.799580   -5.426894    0.736466
     17          6           0      -12.149137   -2.129115    0.993180
     18          7           0      -13.122998   -1.452534    1.045374
 ---------------------------------------------------------------------

 SCF Done:  E(RwB97XD) =  -784.995679425     A.U. after   14 cycles

 Alpha  occ. eigenvalues --  -14.43520 -14.43475 -14.43185 -14.42993 -14.42762
 Alpha  occ. eigenvalues --  -14.42405 -10.36309 -10.36260 -10.36236 -10.34605
 Alpha  occ. eigenvalues --  -10.34541 -10.34219 -10.34027 -10.33988 -10.33856
 Alpha  occ. eigenvalues --  -10.33801 -10.33670 -10.33346  -1.00610  -1.00281
 Alpha  occ. eigenvalues --   -0.99501  -0.98437  -0.98132  -0.97437  -0.96530
 Alpha  occ. eigenvalues --   -0.87556  -0.87256  -0.84506  -0.68202  -0.67708
 Alpha  occ. eigenvalues --   -0.64494  -0.64327  -0.63825  -0.62968  -0.50776
 Alpha  occ. eigenvalues --   -0.47476  -0.47349  -0.46387  -0.46250  -0.45422
 Alpha  occ. eigenvalues --   -0.45314  -0.45207  -0.44718  -0.44403  -0.43999
 Alpha  occ. eigenvalues --   -0.43513  -0.43399  -0.42492  -0.42469  -0.42327
 Alpha  occ. eigenvalues --   -0.41951  -0.41447  -0.40983  -0.40680  -0.39486
 Alpha  occ. eigenvalues --   -0.32001  -0.31607  -0.23206
 Alpha virt. eigenvalues --    0.06276   0.06542   0.08563   0.09129   0.09201
 Alpha virt. eigenvalues --    0.11240   0.12633   0.12706   0.13183   0.13546
 Alpha virt. eigenvalues --    0.14235   0.16024   0.20597   0.20790   0.23140

 Mulliken charges:
               1
     1  C    0.135539
     2  C   -0.471296
     3  C    0.143677
     4  C   -0.481264
     5  C    0.152658
     6  C   -0.475413
     7  C   -0.087555
     8  N   -0.119384
     9  C   -0.128651
    10  N   -0.009702
    11  C   -0.114429
    12  N   -0.045365
    13  C   -0.107848
    14  N   -0.063286
    15  C   -0.122877
    16  N   -0.018844
    17  C   -0.098982
    18  N   -0.086979
 Sum of Mulliken charges =  -2.00000

 Dipole moment (field-independent basis, Debye):
    X=             86.3926    Y=             15.9116    Z=             -9.9470  Tot=             88.4070
 Quadrupole moment (field-independent basis, Debye-Ang):
   XX=           -976.6852   YY=           -224.0787   ZZ=           -114.5931
   XY=           -139.8355   XZ=             90.6567   YZ=              7.0002

 Normal termination of Gaussian 16 at Fri Oct 11 15:45:29 2024.
