 Gaussian 16, Revision C.01,
 Gaussian 16:  ES64L-G16RevC.01  3-Jul-2019

 ----------------------------------------------------------------------
 # wb97xd def2svp scrf=(smd,solvent=acetonitrile) g09default scf=(xqc,m
 axcycle=64) force guess=read nosymm
 ----------------------------------------------------------------------

 ----------
 Title Card
 ----------
 Symbolic Z-matrix:
 Charge = -1 Multiplicity = 2

                          Input orientation:
 ---------------------------------------------------------------------
 Center     Atomic      Atomic             Coordinates (Angstroms)
 Number     Number       Type             X           Y           Z
 ---------------------------------------------------------------------
      1          6           0       -8.938730   -0.876207    1.112264
      2          6           0       -8.944331    0.537510    1.255201
      3          6           0       -8.204788   -2.134460    0.981279
      4          6           0       -6.986024   -2.837040    0.898521
      5          6           0       -9.683044   -2.142428    0.993425
      6          6           0      -10.892974   -2.834279    0.936299
      7          6           0      -10.172933    1.250473    1.342709
      8          7           0      -11.261971    1.766624    1.413905
      9          6           0       -7.667022    1.281106    1.327357
     10          7           0       -6.645654    1.734359    1.377883
     11          6           0       -5.718518   -2.120455    0.950993
     12          7           0       -4.769398   -1.465573    0.997500
     13          6           0       -6.978359   -4.278285    0.739317
     14          7           0       -7.057804   -5.436582    0.606558
     15          6           0      -10.916629   -4.306398    0.820574
     16          7           0      -10.799580   -5.426894    0.736466
     17          6           0      -12.149137   -2.129115    0.993180
     18          7           0      -13.122998   -1.452534    1.045374
 ---------------------------------------------------------------------

 SCF Done:  E(UwB97XD) =  -784.828848934     A.U. after   19 cycles

 Alpha  occ. eigenvalues --  -14.46965 -14.46629 -14.46242 -14.45953 -14.45475
 Alpha  occ. eigenvalues --  -14.45210 -10.39539 -10.39510 -10.39505 -10.39216
 Alpha  occ. eigenvalues --  -10.39150 -10.39109 -10.37161 -10.36887 -10.36563
 Alpha  occ. eigenvalues --  -10.36292 -10.35854 -10.35623  -1.03429  -1.02801
 Alpha  occ. eigenvalues --   -1.02251  -1.01372  -1.00788  -1.00240  -0.99579
 Alpha  occ. eigenvalues --   -0.91351  -0.91177  -0.88546  -0.71634  -0.71139
 Alpha  occ. eigenvalues --   -0.68034  -0.67812  -0.67285  -0.66549  -0.54022
 Alpha  occ. eigenvalues --   -0.50501  -0.50438  -0.49220  -0.48904  -0.47720
 Alpha  occ. eigenvalues --   -0.47643  -0.47590  -0.47064  -0.46838  -0.46558
 Alpha  occ. eigenvalues --   -0.46041  -0.45619  -0.44978  -0.44931  -0.44835
 Alpha  occ. eigenvalues --   -0.44705  -0.43873  -0.43355  -0.43175  -0.42112
 Alpha  occ. eigenvalues --   -0.35677  -0.35453  -0.27583
 Alpha virt. eigenvalues --    0.03591   0.03845   0.06082   0.06817   0.06855
 Alpha virt. eigenvalues --    0.08758   0.10206   0.10336   0.10792   0.11111
 Alpha virt. eigenvalues --    0.11940   0.14118   0.18664   0.18791   0.20026

  Beta  occ. eigenvalues --  -14.46712 -14.46429 -14.46059 -14.45786 -14.45340
  Beta  occ. eigenvalues --  -14.45075 -10.39577 -10.39551 -10.39547 -10.38838
  Beta  occ. eigenvalues --  -10.38798 -10.38745 -10.37281 -10.36985 -10.36654
  Beta  occ. eigenvalues --  -10.36376 -10.35926 -10.35696  -1.03115  -1.02542
  Beta  occ. eigenvalues --   -1.01960  -1.01056  -1.00481  -0.99897  -0.99162
  Beta  occ. eigenvalues --   -0.90593  -0.90366  -0.87525  -0.71507  -0.71016
  Beta  occ. eigenvalues --   -0.67797  -0.67572  -0.67033  -0.66379  -0.53125
  Beta  occ. eigenvalues --   -0.49278  -0.49175  -0.49056  -0.48747  -0.47379
  Beta  occ. eigenvalues --   -0.47288  -0.47247  -0.46781  -0.46624  -0.46346
  Beta  occ. eigenvalues --   -0.45525  -0.45160  -0.44777  -0.44142  -0.44093
  Beta  occ. eigenvalues --   -0.43740  -0.43635  -0.43225  -0.43050  -0.41945
  Beta  occ. eigenvalues --   -0.32998  -0.32481
  Beta virt. eigenvalues --   -0.10110   0.04434   0.04743   0.06196   0.06902
  Beta virt. eigenvalues --    0.06944   0.08755   0.11141   0.11201   0.11249
  Beta virt. eigenvalues --    0.11568   0.11996   0.14412   0.18948   0.19078

 Mulliken charges and spin densities:
               1          2
     1  C    0.166260  -0.044105
     2  C   -0.359539   0.323230
     3  C    0.174019  -0.045385
     4  C   -0.372683   0.312077
     5  C    0.181852  -0.051662
     6  C   -0.371096   0.303468
     7  C   -0.038520  -0.094615
     8  N   -0.055183   0.147713
     9  C   -0.081280  -0.056959
    10  N    0.033674   0.078288
    11  C   -0.068387  -0.066000
    12  N    0.003972   0.096922
    13  C   -0.061774  -0.071370
    14  N   -0.010858   0.106663
    15  C   -0.078470  -0.056101
    16  N    0.024062   0.078236
    17  C   -0.053998  -0.077112
    18  N   -0.032051   0.116710
 Sum of Mulliken charges =  -1.00000   1.00000

 Dipole moment (field-independent basis, Debye):
    X=             43.2051    Y=              8.0651    Z=             -4.9626  Tot=             44.2307
 Quadrupole moment (field-independent basis, Debye-Ang):
   XX=           -559.7140   YY=           -183.0314   ZZ=           -105.0218
   XY=            -70.7870   XZ=             45.4652   YZ=              1.2873

 Normal termination of Gaussian 16 at Fri Oct 11 15:45:05 2024.
