 Gaussian 16, Revision C.01,
 Gaussian 16:  ES64L-G16RevC.01  3-Jul-2019

 ----------------------------------------------------------------------
 # wb97xd def2svp scrf=(smd,solvent=acetonitrile) g09default scf=(xqc,m
 axcycle=64) force guess=read nosymm
 ----------------------------------------------------------------------

 ----------
 Title Card
 ----------
 Symbolic Z-matrix:
 Charge = -2 Multiplicity = 1

                          Input orientation:
 ---------------------------------------------------------------------
 Center     Atomic      Atomic             Coordinates (Angstroms)
 Number     Number       Type             X           Y           Z
 ---------------------------------------------------------------------
      1          6           0       -8.939293   -0.870629    1.111714
      2          6           0       -8.938444    0.431306    1.246397
      3          6           0       -8.203680   -2.139449    0.979560
      4          6           0       -7.069197   -2.787574    0.900235
      5          6           0       -9.676241   -2.139990    0.992347
      6          6           0      -10.811038   -2.790149    0.939313
      7          6           0      -10.183112    1.178769    1.335643
      8          7           0      -11.172271    1.728523    1.402128
      9          6           0       -7.692807    1.178989    1.318463
     10          7           0       -6.703120    1.729181    1.371872
     11          6           0       -5.796580   -2.085079    0.955497
     12          7           0       -4.823744   -1.505104    1.001059
     13          6           0       -7.038306   -4.233869    0.748548
     14          7           0       -7.053134   -5.361030    0.628765
     15          6           0      -10.842063   -4.239183    0.817248
     16          7           0      -10.827249   -5.369069    0.726794
     17          6           0      -12.083554   -2.088066    1.002557
     18          7           0      -13.056062   -1.507755    1.050665
 ---------------------------------------------------------------------

 SCF Done:  E(RwB97XD) =  -784.974110613     A.U. after   12 cycles

 Alpha  occ. eigenvalues --  -14.42357 -14.42354 -14.42352 -14.42350 -14.42346
 Alpha  occ. eigenvalues --  -14.42342 -10.33812 -10.33787 -10.33778 -10.33206
 Alpha  occ. eigenvalues --  -10.33205 -10.33204 -10.33202 -10.33196 -10.33195
 Alpha  occ. eigenvalues --  -10.32384 -10.32382 -10.32374  -1.00659  -1.00035
 Alpha  occ. eigenvalues --   -1.00034  -0.99222  -0.99219  -0.99146  -0.97485
 Alpha  occ. eigenvalues --   -0.88753  -0.88751  -0.84314  -0.68466  -0.68459
 Alpha  occ. eigenvalues --   -0.64553  -0.64542  -0.64101  -0.63680  -0.51442
 Alpha  occ. eigenvalues --   -0.47894  -0.47893  -0.45837  -0.45836  -0.45214
 Alpha  occ. eigenvalues --   -0.45091  -0.45091  -0.44581  -0.43762  -0.43757
 Alpha  occ. eigenvalues --   -0.43679  -0.43026  -0.43022  -0.42988  -0.42840
 Alpha  occ. eigenvalues --   -0.42371  -0.42364  -0.41355  -0.40342  -0.40333
 Alpha  occ. eigenvalues --   -0.32831  -0.32830  -0.21434
 Alpha virt. eigenvalues --    0.08194   0.08196   0.09899   0.10520   0.10527
 Alpha virt. eigenvalues --    0.12323   0.13843   0.13850   0.14364   0.15794
 Alpha virt. eigenvalues --    0.15802   0.16622   0.20697   0.20714   0.24326

 Mulliken charges:
               1
     1  C    0.190271
     2  C   -0.523889
     3  C    0.191255
     4  C   -0.524913
     5  C    0.191182
     6  C   -0.524958
     7  C   -0.162328
     8  N   -0.004188
     9  C   -0.162404
    10  N   -0.004180
    11  C   -0.162240
    12  N   -0.004058
    13  C   -0.162335
    14  N   -0.004343
    15  C   -0.162316
    16  N   -0.004372
    17  C   -0.162172
    18  N   -0.004013
 Sum of Mulliken charges =  -2.00000

 Dipole moment (field-independent basis, Debye):
    X=             85.8725    Y=             16.4647    Z=             -9.8981  Tot=             87.9952
 Quadrupole moment (field-independent basis, Debye-Ang):
   XX=           -963.4420   YY=           -223.0892   ZZ=           -113.2674
   XY=           -147.2560   XZ=             89.2729   YZ=              7.7811

 Normal termination of Gaussian 16 at Fri Oct 11 15:28:54 2024.
