 Gaussian 16, Revision C.01,
 Gaussian 16:  ES64L-G16RevC.01  3-Jul-2019

 ----------------------------------------------------------------------
 # wb97xd def2svp scrf=(smd,solvent=acetonitrile) g09default scf=(xqc,m
 axcycle=64) force guess=read nosymm
 ----------------------------------------------------------------------

 ----------
 Title Card
 ----------
 Symbolic Z-matrix:
 Charge = -1 Multiplicity = 2

                          Input orientation:
 ---------------------------------------------------------------------
 Center     Atomic      Atomic             Coordinates (Angstroms)
 Number     Number       Type             X           Y           Z
 ---------------------------------------------------------------------
      1          6           0       -8.939293   -0.870629    1.111714
      2          6           0       -8.938444    0.431306    1.246397
      3          6           0       -8.203680   -2.139449    0.979560
      4          6           0       -7.069197   -2.787574    0.900235
      5          6           0       -9.676241   -2.139990    0.992347
      6          6           0      -10.811038   -2.790149    0.939313
      7          6           0      -10.183112    1.178769    1.335643
      8          7           0      -11.172271    1.728523    1.402128
      9          6           0       -7.692807    1.178989    1.318463
     10          7           0       -6.703120    1.729181    1.371872
     11          6           0       -5.796580   -2.085079    0.955497
     12          7           0       -4.823744   -1.505104    1.001059
     13          6           0       -7.038306   -4.233869    0.748548
     14          7           0       -7.053134   -5.361030    0.628765
     15          6           0      -10.842063   -4.239183    0.817248
     16          7           0      -10.827249   -5.369069    0.726794
     17          6           0      -12.083554   -2.088066    1.002557
     18          7           0      -13.056062   -1.507755    1.050665
 ---------------------------------------------------------------------

 SCF Done:  E(UwB97XD) =  -784.826215203     A.U. after   15 cycles

 Alpha  occ. eigenvalues --  -14.45309 -14.45308 -14.45307 -14.45304 -14.45304
 Alpha  occ. eigenvalues --  -14.45301 -10.37717 -10.37714 -10.37705 -10.37518
 Alpha  occ. eigenvalues --  -10.37493 -10.37483 -10.35566 -10.35565 -10.35565
 Alpha  occ. eigenvalues --  -10.35564 -10.35564 -10.35561  -1.03873  -1.02708
 Alpha  occ. eigenvalues --   -1.02704  -1.01759  -1.01757  -1.01686  -1.01083
 Alpha  occ. eigenvalues --   -0.92713  -0.92706  -0.88589  -0.72172  -0.72163
 Alpha  occ. eigenvalues --   -0.68150  -0.68144  -0.67969  -0.67269  -0.55045
 Alpha  occ. eigenvalues --   -0.51021  -0.51015  -0.48546  -0.48538  -0.47472
 Alpha  occ. eigenvalues --   -0.47358  -0.47355  -0.46888  -0.46290  -0.46289
 Alpha  occ. eigenvalues --   -0.45951  -0.45852  -0.45478  -0.45478  -0.45306
 Alpha  occ. eigenvalues --   -0.44827  -0.44824  -0.43644  -0.43222  -0.43220
 Alpha  occ. eigenvalues --   -0.36602  -0.36595  -0.25789
 Alpha virt. eigenvalues --    0.05197   0.05199   0.07609   0.08161   0.08170
 Alpha virt. eigenvalues --    0.09553   0.11497   0.11500   0.11973   0.13341
 Alpha virt. eigenvalues --    0.13346   0.14851   0.18866   0.18881   0.21153

  Beta  occ. eigenvalues --  -14.45162 -14.45161 -14.45161 -14.45158 -14.45157
  Beta  occ. eigenvalues --  -14.45154 -10.37550 -10.37532 -10.37522 -10.37355
  Beta  occ. eigenvalues --  -10.37352 -10.37346 -10.35638 -10.35637 -10.35637
  Beta  occ. eigenvalues --  -10.35636 -10.35636 -10.35633  -1.03483  -1.02430
  Beta  occ. eigenvalues --   -1.02426  -1.01511  -1.01509  -1.01439  -1.00674
  Beta  occ. eigenvalues --   -0.92037  -0.92030  -0.87591  -0.71940  -0.71931
  Beta  occ. eigenvalues --   -0.67906  -0.67900  -0.67740  -0.67004  -0.53942
  Beta  occ. eigenvalues --   -0.49815  -0.49810  -0.48345  -0.48338  -0.47197
  Beta  occ. eigenvalues --   -0.47079  -0.47076  -0.46607  -0.46137  -0.46134
  Beta  occ. eigenvalues --   -0.45861  -0.44769  -0.44768  -0.44703  -0.44694
  Beta  occ. eigenvalues --   -0.44677  -0.44673  -0.43537  -0.43087  -0.43085
  Beta  occ. eigenvalues --   -0.34273  -0.34269
  Beta virt. eigenvalues --   -0.08117   0.06456   0.06458   0.07708   0.08250
  Beta virt. eigenvalues --    0.08259   0.09541   0.12401   0.12404   0.12644
  Beta virt. eigenvalues --    0.13397   0.13402   0.15075   0.19093   0.19108

 Mulliken charges and spin densities:
               1          2
     1  C    0.228228  -0.021078
     2  C   -0.421292   0.295507
     3  C    0.228158  -0.021042
     4  C   -0.421882   0.295824
     5  C    0.228102  -0.021020
     6  C   -0.421829   0.295831
     7  C   -0.112720  -0.055435
     8  N    0.042755   0.084752
     9  C   -0.112727  -0.055428
    10  N    0.042757   0.084749
    11  C   -0.112520  -0.055516
    12  N    0.042928   0.084798
    13  C   -0.112917  -0.055481
    14  N    0.042735   0.084868
    15  C   -0.112934  -0.055486
    16  N    0.042720   0.084870
    17  C   -0.112549  -0.055504
    18  N    0.042989   0.084791
 Sum of Mulliken charges =  -1.00000   1.00000

 Dipole moment (field-independent basis, Debye):
    X=             42.9351    Y=              8.2285    Z=             -4.9535  Tot=             43.9962
 Quadrupole moment (field-independent basis, Debye-Ang):
   XX=           -552.8347   YY=           -182.4638   ZZ=           -103.7290
   XY=            -73.6061   XZ=             44.8615   YZ=              1.5309

 Normal termination of Gaussian 16 at Fri Oct 11 15:28:32 2024.
