 Gaussian 16, Revision C.01,
 Gaussian 16:  ES64L-G16RevC.01  3-Jul-2019

 ----------------------------------------------------------------------
 # wb97xd def2svp scrf=(smd,solvent=acetonitrile) g09default scf=(xqc,m
 axcycle=64) force guess=read nosymm
 ----------------------------------------------------------------------

 ----------
 Title Card
 ----------
 Symbolic Z-matrix:
 Charge = -2 Multiplicity = 1

                          Input orientation:
 ---------------------------------------------------------------------
 Center     Atomic      Atomic             Coordinates (Angstroms)
 Number     Number       Type             X           Y           Z
 ---------------------------------------------------------------------
      1          6           0       -8.937715   -0.887404    1.111459
      2          6           0       -8.942603    0.534425    1.254689
      3          6           0       -8.216938   -2.127638    0.979932
      4          6           0       -6.988121   -2.835890    0.898580
      5          6           0       -9.673930   -2.138205    0.994163
      6          6           0      -10.885509   -2.832305    0.936592
      7          6           0      -10.170351    1.246134    1.342869
      8          7           0      -11.238414    1.752424    1.410750
      9          6           0       -7.673735    1.270757    1.325727
     10          7           0       -6.666469    1.726901    1.376253
     11          6           0       -5.734270   -2.127981    0.951133
     12          7           0       -4.781747   -1.469635    0.998502
     13          6           0       -6.978868   -4.257909    0.742553
     14          7           0       -7.060720   -5.426821    0.610735
     15          6           0      -10.915308   -4.276284    0.821911
     16          7           0      -10.801517   -5.424364    0.733396
     17          6           0      -12.138425   -2.134486    0.992657
     18          7           0      -13.105254   -1.461897    1.046905
 ---------------------------------------------------------------------

 SCF Done:  E(RwB97XD) =  -785.007725010     A.U. after   13 cycles

 Alpha  occ. eigenvalues --  -14.43377 -14.43176 -14.43125 -14.43033 -14.42933
 Alpha  occ. eigenvalues --  -14.42015 -10.36240 -10.36210 -10.36154 -10.34331
 Alpha  occ. eigenvalues --  -10.34200 -10.34097 -10.34028 -10.33904 -10.33751
 Alpha  occ. eigenvalues --  -10.33584 -10.33537 -10.32926  -1.00991  -1.00171
 Alpha  occ. eigenvalues --   -0.99114  -0.98516  -0.97846  -0.97674  -0.97379
 Alpha  occ. eigenvalues --   -0.87795  -0.87324  -0.84989  -0.68482  -0.67880
 Alpha  occ. eigenvalues --   -0.64683  -0.64602  -0.64106  -0.63151  -0.51129
 Alpha  occ. eigenvalues --   -0.47612  -0.47428  -0.46548  -0.46367  -0.45377
 Alpha  occ. eigenvalues --   -0.45224  -0.45106  -0.44683  -0.44471  -0.44105
 Alpha  occ. eigenvalues --   -0.43607  -0.43221  -0.42407  -0.42261  -0.42253
 Alpha  occ. eigenvalues --   -0.42050  -0.41577  -0.40891  -0.40319  -0.39871
 Alpha  occ. eigenvalues --   -0.31785  -0.31427  -0.23467
 Alpha virt. eigenvalues --    0.06295   0.06729   0.08780   0.08849   0.09487
 Alpha virt. eigenvalues --    0.11494   0.12429   0.12637   0.13633   0.13728
 Alpha virt. eigenvalues --    0.14513   0.16105   0.20835   0.21028   0.23463

 Mulliken charges:
               1
     1  C    0.135716
     2  C   -0.480022
     3  C    0.142599
     4  C   -0.477754
     5  C    0.158550
     6  C   -0.473708
     7  C   -0.103872
     8  N   -0.087940
     9  C   -0.137062
    10  N    0.002946
    11  C   -0.113083
    12  N   -0.050211
    13  C   -0.103667
    14  N   -0.075766
    15  C   -0.113058
    16  N   -0.045986
    17  C   -0.103272
    18  N   -0.074412
 Sum of Mulliken charges =  -2.00000

 Dipole moment (field-independent basis, Debye):
    X=             86.1351    Y=             16.4670    Z=             -9.8941  Tot=             88.2514
 Quadrupole moment (field-independent basis, Debye-Ang):
   XX=           -971.8525   YY=           -226.5371   ZZ=           -114.2513
   XY=           -144.9504   XZ=             89.8625   YZ=              7.4339

 Normal termination of Gaussian 16 at Fri Oct 11 15:46:24 2024.
