 Gaussian 16, Revision C.01,
 Gaussian 16:  ES64L-G16RevC.01  3-Jul-2019

 ----------------------------------------------------------------------
 # wb97xd def2svp scrf=(smd,solvent=acetonitrile) g09default scf=(xqc,m
 axcycle=64) force guess=read nosymm
 ----------------------------------------------------------------------

 ----------
 Title Card
 ----------
 Symbolic Z-matrix:
 Charge = -1 Multiplicity = 2

                          Input orientation:
 ---------------------------------------------------------------------
 Center     Atomic      Atomic             Coordinates (Angstroms)
 Number     Number       Type             X           Y           Z
 ---------------------------------------------------------------------
      1          6           0       -8.937715   -0.887404    1.111459
      2          6           0       -8.942603    0.534425    1.254689
      3          6           0       -8.216938   -2.127638    0.979932
      4          6           0       -6.988121   -2.835890    0.898580
      5          6           0       -9.673930   -2.138205    0.994163
      6          6           0      -10.885509   -2.832305    0.936592
      7          6           0      -10.170351    1.246134    1.342869
      8          7           0      -11.238414    1.752424    1.410750
      9          6           0       -7.673735    1.270757    1.325727
     10          7           0       -6.666469    1.726901    1.376253
     11          6           0       -5.734270   -2.127981    0.951133
     12          7           0       -4.781747   -1.469635    0.998502
     13          6           0       -6.978868   -4.257909    0.742553
     14          7           0       -7.060720   -5.426821    0.610735
     15          6           0      -10.915308   -4.276284    0.821911
     16          7           0      -10.801517   -5.424364    0.733396
     17          6           0      -12.138425   -2.134486    0.992657
     18          7           0      -13.105254   -1.461897    1.046905
 ---------------------------------------------------------------------

 SCF Done:  E(UwB97XD) =  -784.837878155     A.U. after   19 cycles

 Alpha  occ. eigenvalues --  -14.46456 -14.46415 -14.46378 -14.46004 -14.45992
 Alpha  occ. eigenvalues --  -14.44858 -10.39427 -10.39389 -10.39387 -10.39077
 Alpha  occ. eigenvalues --  -10.38832 -10.38807 -10.36634 -10.36632 -10.36610
 Alpha  occ. eigenvalues --  -10.36264 -10.36256 -10.35231  -1.03990  -1.03090
 Alpha  occ. eigenvalues --   -1.01799  -1.01321  -1.00489  -1.00449  -1.00314
 Alpha  occ. eigenvalues --   -0.91553  -0.91270  -0.89029  -0.71871  -0.71302
 Alpha  occ. eigenvalues --   -0.68206  -0.68098  -0.67639  -0.66728  -0.54350
 Alpha  occ. eigenvalues --   -0.50714  -0.50537  -0.49448  -0.49077  -0.47708
 Alpha  occ. eigenvalues --   -0.47621  -0.47524  -0.47041  -0.46944  -0.46654
 Alpha  occ. eigenvalues --   -0.46207  -0.45576  -0.45145  -0.44748  -0.44668
 Alpha  occ. eigenvalues --   -0.44621  -0.43977  -0.43346  -0.42778  -0.42451
 Alpha  occ. eigenvalues --   -0.35461  -0.35288  -0.27850
 Alpha virt. eigenvalues --    0.03676   0.04050   0.06415   0.06504   0.07054
 Alpha virt. eigenvalues --    0.08983   0.10027   0.10229   0.11137   0.11282
 Alpha virt. eigenvalues --    0.12160   0.14231   0.18985   0.19107   0.20318

  Beta  occ. eigenvalues --  -14.46226 -14.46222 -14.46173 -14.45841 -14.45813
  Beta  occ. eigenvalues --  -14.44721 -10.39469 -10.39436 -10.39427 -10.38688
  Beta  occ. eigenvalues --  -10.38470 -10.38464 -10.36745 -10.36725 -10.36709
  Beta  occ. eigenvalues --  -10.36346 -10.36344 -10.35304  -1.03656  -1.02808
  Beta  occ. eigenvalues --   -1.01478  -1.00999  -1.00160  -1.00095  -0.99943
  Beta  occ. eigenvalues --   -0.90802  -0.90441  -0.88009  -0.71761  -0.71191
  Beta  occ. eigenvalues --   -0.67973  -0.67866  -0.67383  -0.66562  -0.53507
  Beta  occ. eigenvalues --   -0.49451  -0.49310  -0.49270  -0.48936  -0.47358
  Beta  occ. eigenvalues --   -0.47256  -0.47167  -0.46779  -0.46664  -0.46420
  Beta  occ. eigenvalues --   -0.45455  -0.45266  -0.44532  -0.44159  -0.43877
  Beta  occ. eigenvalues --   -0.43836  -0.43773  -0.43214  -0.42641  -0.42298
  Beta  occ. eigenvalues --   -0.32717  -0.32188
  Beta virt. eigenvalues --   -0.10447   0.04437   0.04841   0.06519   0.06602
  Beta virt. eigenvalues --    0.07147   0.08980   0.11013   0.11088   0.11335
  Beta virt. eigenvalues --    0.12025   0.12214   0.14516   0.19238   0.19365

 Mulliken charges and spin densities:
               1          2
     1  C    0.161879  -0.057436
     2  C   -0.364371   0.333121
     3  C    0.171525  -0.044548
     4  C   -0.369617   0.310537
     5  C    0.186506  -0.050960
     6  C   -0.372679   0.294057
     7  C   -0.054706  -0.087521
     8  N   -0.027301   0.135801
     9  C   -0.088965  -0.057435
    10  N    0.045711   0.079523
    11  C   -0.066143  -0.069774
    12  N    0.001238   0.104565
    13  C   -0.056301  -0.078020
    14  N   -0.019899   0.119633
    15  C   -0.068545  -0.064607
    16  N    0.002041   0.095161
    17  C   -0.058784  -0.073337
    18  N   -0.021591   0.111238
 Sum of Mulliken charges =  -1.00000   1.00000

 Dipole moment (field-independent basis, Debye):
    X=             43.1322    Y=              8.4213    Z=             -4.9301  Tot=             44.2223
 Quadrupole moment (field-independent basis, Debye-Ang):
   XX=           -558.3010   YY=           -184.3618   ZZ=           -104.7481
   XY=            -74.2371   XZ=             45.0590   YZ=              1.5886

 Normal termination of Gaussian 16 at Fri Oct 11 15:46:00 2024.
