 Gaussian 16, Revision C.01,
 Gaussian 16:  ES64L-G16RevC.01  3-Jul-2019

 ----------------------------------------------------------------------
 # wb97xd def2svp scrf=(smd,solvent=acetonitrile) g09default scf=(xqc,m
 axcycle=64) force guess=read nosymm
 ----------------------------------------------------------------------

 ----------
 Title Card
 ----------
 Symbolic Z-matrix:
 Charge = -2 Multiplicity = 1

                          Input orientation:
 ---------------------------------------------------------------------
 Center     Atomic      Atomic             Coordinates (Angstroms)
 Number     Number       Type             X           Y           Z
 ---------------------------------------------------------------------
      1          6           0       -8.938763   -0.880496    1.110486
      2          6           0       -8.939310    0.505437    1.252550
      3          6           0       -8.211251   -2.131319    0.980339
      4          6           0       -7.008639   -2.824782    0.898391
      5          6           0       -9.688002   -2.145997    0.993643
      6          6           0      -10.851061   -2.814538    0.938100
      7          6           0      -10.192989    1.250400    1.343674
      8          7           0      -11.213126    1.741050    1.408570
      9          6           0       -7.671174    1.265161    1.325044
     10          7           0       -6.674257    1.724194    1.375487
     11          6           0       -5.749487   -2.131934    0.951532
     12          7           0       -4.780602   -1.469386    0.998979
     13          6           0       -6.983666   -4.242906    0.745005
     14          7           0       -7.059760   -5.427047    0.612015
     15          6           0      -10.914475   -4.259544    0.822483
     16          7           0      -10.799663   -5.429847    0.731929
     17          6           0      -12.142558   -2.127125    0.993473
     18          7           0      -13.091110   -1.471501    1.047104
 ---------------------------------------------------------------------

 SCF Done:  E(RwB97XD) =  -784.990623542     A.U. after   14 cycles

 Alpha  occ. eigenvalues --  -14.43618 -14.43335 -14.43225 -14.43150 -14.42331
 Alpha  occ. eigenvalues --  -14.41782 -10.35653 -10.35552 -10.35449 -10.34490
 Alpha  occ. eigenvalues --  -10.34357 -10.34120 -10.34063 -10.33655 -10.33504
 Alpha  occ. eigenvalues --  -10.33305 -10.33165 -10.32687  -1.01139  -0.99951
 Alpha  occ. eigenvalues --   -0.99440  -0.98878  -0.98098  -0.97486  -0.96951
 Alpha  occ. eigenvalues --   -0.88286  -0.87461  -0.84517  -0.68914  -0.67944
 Alpha  occ. eigenvalues --   -0.64915  -0.64181  -0.63627  -0.63154  -0.51068
 Alpha  occ. eigenvalues --   -0.47729  -0.47378  -0.46292  -0.46217  -0.45480
 Alpha  occ. eigenvalues --   -0.45192  -0.45088  -0.44707  -0.44400  -0.43940
 Alpha  occ. eigenvalues --   -0.43585  -0.43119  -0.42988  -0.42591  -0.42312
 Alpha  occ. eigenvalues --   -0.41598  -0.41585  -0.41112  -0.40243  -0.39868
 Alpha  occ. eigenvalues --   -0.32487  -0.31742  -0.22748
 Alpha virt. eigenvalues --    0.06438   0.07286   0.08498   0.08940   0.10575
 Alpha virt. eigenvalues --    0.11005   0.12056   0.12680   0.13819   0.14717
 Alpha virt. eigenvalues --    0.14801   0.16132   0.20677   0.20858   0.23282

 Mulliken charges:
               1
     1  C    0.151108
     2  C   -0.499991
     3  C    0.152436
     4  C   -0.479058
     5  C    0.187778
     6  C   -0.485615
     7  C   -0.139676
     8  N   -0.027905
     9  C   -0.148618
    10  N    0.008517
    11  C   -0.110684
    12  N   -0.069001
    13  C   -0.102437
    14  N   -0.094000
    15  C   -0.107786
    16  N   -0.070966
    17  C   -0.122390
    18  N   -0.041711
 Sum of Mulliken charges =  -2.00000

 Dipole moment (field-independent basis, Debye):
    X=             85.1788    Y=             17.1252    Z=             -9.8217  Tot=             87.4366
 Quadrupole moment (field-independent basis, Debye-Ang):
   XX=           -953.1157   YY=           -227.8879   ZZ=           -113.9788
   XY=           -150.0661   XZ=             88.1552   YZ=              8.0831

 Normal termination of Gaussian 16 at Fri Oct 11 15:47:22 2024.
