 Gaussian 16, Revision C.01,
 Gaussian 16:  ES64L-G16RevC.01  3-Jul-2019

 ----------------------------------------------------------------------
 # wb97xd def2svp scrf=(smd,solvent=acetonitrile) g09default scf=(xqc,m
 axcycle=64) force guess=read nosymm
 ----------------------------------------------------------------------

 ----------
 Title Card
 ----------
 Symbolic Z-matrix:
 Charge = -1 Multiplicity = 2

                          Input orientation:
 ---------------------------------------------------------------------
 Center     Atomic      Atomic             Coordinates (Angstroms)
 Number     Number       Type             X           Y           Z
 ---------------------------------------------------------------------
      1          6           0       -8.938763   -0.880496    1.110486
      2          6           0       -8.939310    0.505437    1.252550
      3          6           0       -8.211251   -2.131319    0.980339
      4          6           0       -7.008639   -2.824782    0.898391
      5          6           0       -9.688002   -2.145997    0.993643
      6          6           0      -10.851061   -2.814538    0.938100
      7          6           0      -10.192989    1.250400    1.343674
      8          7           0      -11.213126    1.741050    1.408570
      9          6           0       -7.671174    1.265161    1.325044
     10          7           0       -6.674257    1.724194    1.375487
     11          6           0       -5.749487   -2.131934    0.951532
     12          7           0       -4.780602   -1.469386    0.998979
     13          6           0       -6.983666   -4.242906    0.745005
     14          7           0       -7.059760   -5.427047    0.612015
     15          6           0      -10.914475   -4.259544    0.822483
     16          7           0      -10.799663   -5.429847    0.731929
     17          6           0      -12.142558   -2.127125    0.993473
     18          7           0      -13.091110   -1.471501    1.047104
 ---------------------------------------------------------------------

 SCF Done:  E(UwB97XD) =  -784.828702210     A.U. after   20 cycles

 Alpha  occ. eigenvalues --  -14.46643 -14.46534 -14.46309 -14.45987 -14.45409
 Alpha  occ. eigenvalues --  -14.44628 -10.39081 -10.38977 -10.38943 -10.38864
 Alpha  occ. eigenvalues --  -10.38583 -10.38476 -10.36835 -10.36735 -10.36533
 Alpha  occ. eigenvalues --  -10.36243 -10.35728 -10.35020  -1.03867  -1.03006
 Alpha  occ. eigenvalues --   -1.02112  -1.01672  -1.00762  -1.00378  -0.99804
 Alpha  occ. eigenvalues --   -0.92010  -0.91442  -0.88642  -0.72359  -0.71488
 Alpha  occ. eigenvalues --   -0.68487  -0.67563  -0.67308  -0.66776  -0.54414
 Alpha  occ. eigenvalues --   -0.50782  -0.50513  -0.49193  -0.48825  -0.47735
 Alpha  occ. eigenvalues --   -0.47632  -0.47375  -0.47013  -0.46879  -0.46470
 Alpha  occ. eigenvalues --   -0.46107  -0.45679  -0.45570  -0.44957  -0.44689
 Alpha  occ. eigenvalues --   -0.44269  -0.44067  -0.43519  -0.42828  -0.42366
 Alpha  occ. eigenvalues --   -0.36138  -0.35593  -0.27114
 Alpha virt. eigenvalues --    0.03682   0.04499   0.06071   0.06701   0.08218
 Alpha virt. eigenvalues --    0.08436   0.09534   0.10417   0.11397   0.12316
 Alpha virt. eigenvalues --    0.12385   0.14268   0.18771   0.18917   0.20145

  Beta  occ. eigenvalues --  -14.46425 -14.46361 -14.46119 -14.45841 -14.45242
  Beta  occ. eigenvalues --  -14.44496 -10.39008 -10.38970 -10.38901 -10.38676
  Beta  occ. eigenvalues --  -10.38268 -10.38129 -10.36938 -10.36821 -10.36626
  Beta  occ. eigenvalues --  -10.36318 -10.35812 -10.35091  -1.03567  -1.02676
  Beta  occ. eigenvalues --   -1.01820  -1.01362  -1.00443  -1.00061  -0.99447
  Beta  occ. eigenvalues --   -0.91323  -0.90642  -0.87616  -0.72216  -0.71334
  Beta  occ. eigenvalues --   -0.68254  -0.67338  -0.67100  -0.66508  -0.53462
  Beta  occ. eigenvalues --   -0.49558  -0.49260  -0.49021  -0.48653  -0.47399
  Beta  occ. eigenvalues --   -0.47280  -0.47087  -0.46750  -0.46644  -0.46288
  Beta  occ. eigenvalues --   -0.45443  -0.45345  -0.44819  -0.44639  -0.43950
  Beta  occ. eigenvalues --   -0.43931  -0.43403  -0.43361  -0.42690  -0.42215
  Beta  occ. eigenvalues --   -0.33659  -0.32733
  Beta virt. eigenvalues --   -0.09592   0.04682   0.05467   0.06192   0.06795
  Beta virt. eigenvalues --    0.08284   0.08440   0.10558   0.11207   0.11445
  Beta virt. eigenvalues --    0.12403   0.13157   0.14548   0.19043   0.19176

 Mulliken charges and spin densities:
               1          2
     1  C    0.178511  -0.057296
     2  C   -0.380904   0.344046
     3  C    0.189930  -0.017515
     4  C   -0.376482   0.298668
     5  C    0.220118  -0.042919
     6  C   -0.390989   0.278945
     7  C   -0.090545  -0.066347
     8  N    0.021827   0.096660
     9  C   -0.099248  -0.056042
    10  N    0.050635   0.076794
    11  C   -0.061934  -0.072045
    12  N   -0.014244   0.110811
    13  C   -0.053096  -0.080656
    14  N   -0.034815   0.126839
    15  C   -0.063395  -0.067174
    16  N   -0.020239   0.100454
    17  C   -0.079403  -0.058367
    18  N    0.004274   0.085143
 Sum of Mulliken charges =  -1.00000   1.00000

 Dipole moment (field-independent basis, Debye):
    X=             42.6398    Y=              8.8175    Z=             -4.8878  Tot=             43.8154
 Quadrupole moment (field-independent basis, Debye-Ang):
   XX=           -548.8119   YY=           -185.2154   ZZ=           -104.4987
   XY=            -77.3486   XZ=             44.1390   YZ=              1.9729

 Normal termination of Gaussian 16 at Fri Oct 11 15:46:57 2024.
