 Gaussian 16, Revision C.01,
 Gaussian 16:  ES64L-G16RevC.01  3-Jul-2019

 ----------------------------------------------------------------------
 # wb97xd def2svp scrf=(smd,solvent=acetonitrile) g09default scf=(xqc,m
 axcycle=64) force guess=read nosymm
 ----------------------------------------------------------------------

 ----------
 Title Card
 ----------
 Symbolic Z-matrix:
 Charge = -2 Multiplicity = 1

                          Input orientation:
 ---------------------------------------------------------------------
 Center     Atomic      Atomic             Coordinates (Angstroms)
 Number     Number       Type             X           Y           Z
 ---------------------------------------------------------------------
      1          6           0       -8.937999   -0.885577    1.112510
      2          6           0       -8.937699    0.538304    1.255061
      3          6           0       -8.213939   -2.129646    0.980786
      4          6           0       -6.978821   -2.838700    0.898648
      5          6           0       -9.676672   -2.139661    0.993698
      6          6           0      -10.891577   -2.838313    0.935946
      7          6           0      -10.203970    1.262584    1.344697
      8          7           0      -11.224828    1.748701    1.410759
      9          6           0       -7.671729    1.273381    1.327123
     10          7           0       -6.653414    1.733178    1.377151
     11          6           0       -5.746226   -2.135374    0.949706
     12          7           0       -4.757100   -1.455994    0.998591
     13          6           0       -6.979436   -4.270318    0.739909
     14          7           0       -7.058600   -5.429784    0.608348
     15          6           0      -10.917467   -4.264538    0.822922
     16          7           0      -10.798137   -5.452634    0.733523
     17          6           0      -12.157628   -2.120933    0.994088
     18          7           0      -13.104654   -1.464853    1.045340
 ---------------------------------------------------------------------

 SCF Done:  E(RwB97XD) =  -785.002271561     A.U. after   14 cycles

 Alpha  occ. eigenvalues --  -14.43706 -14.43510 -14.43171 -14.43119 -14.42401
 Alpha  occ. eigenvalues --  -14.42176 -10.36385 -10.36345 -10.36233 -10.34713
 Alpha  occ. eigenvalues --  -10.34580 -10.34176 -10.34047 -10.33894 -10.33877
 Alpha  occ. eigenvalues --  -10.33608 -10.33418 -10.33155  -1.00693  -0.99904
 Alpha  occ. eigenvalues --   -0.99486  -0.99036  -0.98154  -0.97232  -0.96835
 Alpha  occ. eigenvalues --   -0.87727  -0.87138  -0.84741  -0.68306  -0.67800
 Alpha  occ. eigenvalues --   -0.64903  -0.64567  -0.63679  -0.62968  -0.50984
 Alpha  occ. eigenvalues --   -0.47557  -0.47308  -0.46524  -0.46344  -0.45418
 Alpha  occ. eigenvalues --   -0.45248  -0.45149  -0.44672  -0.44392  -0.44191
 Alpha  occ. eigenvalues --   -0.43382  -0.43238  -0.43064  -0.42523  -0.42057
 Alpha  occ. eigenvalues --   -0.41740  -0.41636  -0.41057  -0.40016  -0.39832
 Alpha  occ. eigenvalues --   -0.31799  -0.31423  -0.23481
 Alpha virt. eigenvalues --    0.06085   0.06824   0.08268   0.08551   0.10159
 Alpha virt. eigenvalues --    0.11358   0.11880   0.12273   0.13626   0.14211
 Alpha virt. eigenvalues --    0.14434   0.15964   0.20772   0.20819   0.23286

 Mulliken charges:
               1
     1  C    0.133531
     2  C   -0.484720
     3  C    0.134962
     4  C   -0.468682
     5  C    0.154211
     6  C   -0.468697
     7  C   -0.129599
     8  N   -0.027982
     9  C   -0.134058
    10  N   -0.010772
    11  C   -0.085883
    12  N   -0.105045
    13  C   -0.105791
    14  N   -0.059799
    15  C   -0.087591
    16  N   -0.098749
    17  C   -0.112542
    18  N   -0.042794
 Sum of Mulliken charges =  -2.00000

 Dipole moment (field-independent basis, Debye):
    X=             85.2178    Y=             17.0091    Z=             -9.8371  Tot=             87.4537
 Quadrupole moment (field-independent basis, Debye-Ang):
   XX=           -956.0183   YY=           -228.2325   ZZ=           -114.2587
   XY=           -150.7592   XZ=             88.1927   YZ=              7.9815

 Normal termination of Gaussian 16 at Fri Oct 11 15:48:19 2024.
