 Gaussian 16, Revision C.01,
 Gaussian 16:  ES64L-G16RevC.01  3-Jul-2019

 ----------------------------------------------------------------------
 # wb97xd def2svp scrf=(smd,solvent=acetonitrile) g09default scf=(xqc,m
 axcycle=64) force guess=read nosymm
 ----------------------------------------------------------------------

 ----------
 Title Card
 ----------
 Symbolic Z-matrix:
 Charge = -1 Multiplicity = 2

                          Input orientation:
 ---------------------------------------------------------------------
 Center     Atomic      Atomic             Coordinates (Angstroms)
 Number     Number       Type             X           Y           Z
 ---------------------------------------------------------------------
      1          6           0       -8.937999   -0.885577    1.112510
      2          6           0       -8.937699    0.538304    1.255061
      3          6           0       -8.213939   -2.129646    0.980786
      4          6           0       -6.978821   -2.838700    0.898648
      5          6           0       -9.676672   -2.139661    0.993698
      6          6           0      -10.891577   -2.838313    0.935946
      7          6           0      -10.203970    1.262584    1.344697
      8          7           0      -11.224828    1.748701    1.410759
      9          6           0       -7.671729    1.273381    1.327123
     10          7           0       -6.653414    1.733178    1.377151
     11          6           0       -5.746226   -2.135374    0.949706
     12          7           0       -4.757100   -1.455994    0.998591
     13          6           0       -6.979436   -4.270318    0.739909
     14          7           0       -7.058600   -5.429784    0.608348
     15          6           0      -10.917467   -4.264538    0.822922
     16          7           0      -10.798137   -5.452634    0.733523
     17          6           0      -12.157628   -2.120933    0.994088
     18          7           0      -13.104654   -1.464853    1.045340
 ---------------------------------------------------------------------

 SCF Done:  E(UwB97XD) =  -784.832380987     A.U. after   20 cycles

 Alpha  occ. eigenvalues --  -14.46838 -14.46824 -14.46240 -14.45934 -14.45439
 Alpha  occ. eigenvalues --  -14.45137 -10.39549 -10.39519 -10.39490 -10.39421
 Alpha  occ. eigenvalues --  -10.38921 -10.38865 -10.37039 -10.37035 -10.36527
 Alpha  occ. eigenvalues --  -10.36250 -10.35805 -10.35515  -1.03777  -1.02770
 Alpha  occ. eigenvalues --   -1.02130  -1.01696  -1.00986  -0.99943  -0.99686
 Alpha  occ. eigenvalues --   -0.91474  -0.91069  -0.88801  -0.71668  -0.71229
 Alpha  occ. eigenvalues --   -0.68421  -0.67961  -0.67294  -0.66541  -0.54197
 Alpha  occ. eigenvalues --   -0.50654  -0.50415  -0.49369  -0.49074  -0.47775
 Alpha  occ. eigenvalues --   -0.47669  -0.47465  -0.47057  -0.46890  -0.46706
 Alpha  occ. eigenvalues --   -0.45994  -0.45790  -0.45423  -0.44852  -0.44549
 Alpha  occ. eigenvalues --   -0.44289  -0.44186  -0.43466  -0.42457  -0.42405
 Alpha  occ. eigenvalues --   -0.35554  -0.35213  -0.27868
 Alpha virt. eigenvalues --    0.03442   0.04183   0.05848   0.06226   0.07826
 Alpha virt. eigenvalues --    0.08839   0.09391   0.09919   0.11259   0.11811
 Alpha virt. eigenvalues --    0.11998   0.14069   0.18807   0.18936   0.20143

  Beta  occ. eigenvalues --  -14.46614 -14.46606 -14.46057 -14.45779 -14.45273
  Beta  occ. eigenvalues --  -14.44984 -10.39589 -10.39557 -10.39540 -10.39016
  Beta  occ. eigenvalues --  -10.38582 -10.38509 -10.37146 -10.37140 -10.36618
  Beta  occ. eigenvalues --  -10.36329 -10.35890 -10.35595  -1.03438  -1.02467
  Beta  occ. eigenvalues --   -1.01841  -1.01395  -1.00660  -0.99594  -0.99308
  Beta  occ. eigenvalues --   -0.90723  -0.90238  -0.87763  -0.71565  -0.71103
  Beta  occ. eigenvalues --   -0.68201  -0.67745  -0.67012  -0.66378  -0.53350
  Beta  occ. eigenvalues --   -0.49380  -0.49239  -0.49154  -0.48917  -0.47403
  Beta  occ. eigenvalues --   -0.47307  -0.47150  -0.46728  -0.46653  -0.46491
  Beta  occ. eigenvalues --   -0.45312  -0.45098  -0.44895  -0.44715  -0.44050
  Beta  occ. eigenvalues --   -0.43684  -0.43368  -0.43348  -0.42304  -0.42253
  Beta  occ. eigenvalues --   -0.32673  -0.32226
  Beta virt. eigenvalues --   -0.10441   0.04251   0.04922   0.05961   0.06326
  Beta virt. eigenvalues --    0.07899   0.08835   0.10403   0.10785   0.11302
  Beta virt. eigenvalues --    0.12045   0.12643   0.14378   0.19105   0.19185

 Mulliken charges and spin densities:
               1          2
     1  C    0.156677  -0.069538
     2  C   -0.363428   0.349514
     3  C    0.166540  -0.036305
     4  C   -0.363275   0.302994
     5  C    0.183221  -0.047890
     6  C   -0.368238   0.291631
     7  C   -0.081934  -0.067478
     8  N    0.020862   0.096577
     9  C   -0.085702  -0.063486
    10  N    0.035140   0.089142
    11  C   -0.037880  -0.086902
    12  N   -0.044801   0.135359
    13  C   -0.059125  -0.071030
    14  N   -0.007504   0.106883
    15  C   -0.042311  -0.080234
    16  N   -0.042747   0.122465
    17  C   -0.069352  -0.061788
    18  N    0.003857   0.090087
 Sum of Mulliken charges =  -1.00000   1.00000

 Dipole moment (field-independent basis, Debye):
    X=             42.6513    Y=              8.7697    Z=             -4.8930  Tot=             43.8177
 Quadrupole moment (field-independent basis, Debye-Ang):
   XX=           -550.1763   YY=           -185.4613   ZZ=           -104.7930
   XY=            -77.7661   XZ=             44.1327   YZ=              1.9370

 Normal termination of Gaussian 16 at Fri Oct 11 15:47:55 2024.
