 Gaussian 16, Revision C.01,
 Gaussian 16:  ES64L-G16RevC.01  3-Jul-2019

 ----------------------------------------------------------------------
 # wb97xd def2svp scrf=(smd,solvent=acetonitrile) g09default scf=(xqc,m
 axcycle=64) force guess=read nosymm
 ----------------------------------------------------------------------

 ----------
 Title Card
 ----------
 Symbolic Z-matrix:
 Charge = -2 Multiplicity = 1

                          Input orientation:
 ---------------------------------------------------------------------
 Center     Atomic      Atomic             Coordinates (Angstroms)
 Number     Number       Type             X           Y           Z
 ---------------------------------------------------------------------
      1          6           0       -8.937569   -0.864427    1.113915
      2          6           0       -8.937169    0.523877    1.253657
      3          6           0       -8.192964   -2.140879    0.981774
      4          6           0       -6.997230   -2.825801    0.899684
      5          6           0       -9.682459   -2.142707    0.993039
      6          6           0      -10.893435   -2.843695    0.935362
      7          6           0      -10.213194    1.260708    1.344187
      8          7           0      -11.233762    1.757629    1.412809
      9          6           0       -7.673149    1.269649    1.327007
     10          7           0       -6.635469    1.740108    1.378712
     11          6           0       -5.739473   -2.124913    0.949993
     12          7           0       -4.749986   -1.457260    0.997632
     13          6           0       -6.986094   -4.290594    0.737276
     14          7           0       -7.053649   -5.429670    0.606057
     15          6           0      -10.912002   -4.265399    0.823308
     16          7           0      -10.795364   -5.465422    0.735395
     17          6           0      -12.174627   -2.100295    0.996000
     18          7           0      -13.102300   -1.471088    1.042997
 ---------------------------------------------------------------------

 SCF Done:  E(RwB97XD) =  -784.988183997     A.U. after   14 cycles

 Alpha  occ. eigenvalues --  -14.43670 -14.43648 -14.43100 -14.42751 -14.42713
 Alpha  occ. eigenvalues --  -14.42522 -10.36109 -10.36073 -10.35985 -10.34748
 Alpha  occ. eigenvalues --  -10.34715 -10.34062 -10.33962 -10.33855 -10.33807
 Alpha  occ. eigenvalues --  -10.33745 -10.33715 -10.33460  -1.00493  -1.00059
 Alpha  occ. eigenvalues --   -0.99583  -0.99225  -0.97908  -0.97196  -0.96387
 Alpha  occ. eigenvalues --   -0.87714  -0.87336  -0.84173  -0.68178  -0.67697
 Alpha  occ. eigenvalues --   -0.64527  -0.64305  -0.63642  -0.62907  -0.50641
 Alpha  occ. eigenvalues --   -0.47441  -0.47378  -0.46230  -0.46149  -0.45447
 Alpha  occ. eigenvalues --   -0.45320  -0.45264  -0.44731  -0.44130  -0.44063
 Alpha  occ. eigenvalues --   -0.43373  -0.43247  -0.43024  -0.42389  -0.42280
 Alpha  occ. eigenvalues --   -0.41951  -0.41817  -0.41213  -0.40107  -0.39732
 Alpha  occ. eigenvalues --   -0.32165  -0.31923  -0.22852
 Alpha virt. eigenvalues --    0.06273   0.06764   0.08466   0.08747   0.09907
 Alpha virt. eigenvalues --    0.11172   0.12297   0.12757   0.13615   0.13951
 Alpha virt. eigenvalues --    0.14215   0.15933   0.20337   0.20613   0.23075

 Mulliken charges:
               1
     1  C    0.146246
     2  C   -0.485815
     3  C    0.151517
     4  C   -0.479940
     5  C    0.141994
     6  C   -0.473298
     7  C   -0.127201
     8  N   -0.030868
     9  C   -0.124841
    10  N   -0.031422
    11  C   -0.095428
    12  N   -0.092930
    13  C   -0.120137
    14  N   -0.033042
    15  C   -0.084173
    16  N   -0.118964
    17  C   -0.129442
    18  N   -0.012257
 Sum of Mulliken charges =  -2.00000

 Dipole moment (field-independent basis, Debye):
    X=             85.5037    Y=             17.0696    Z=             -9.8433  Tot=             87.7448
 Quadrupole moment (field-independent basis, Debye-Ang):
   XX=           -959.5974   YY=           -228.3622   ZZ=           -114.3785
   XY=           -153.2783   XZ=             88.3973   YZ=              8.0955

 Normal termination of Gaussian 16 at Fri Oct 11 15:49:15 2024.
