 Gaussian 16, Revision C.01,
 Gaussian 16:  ES64L-G16RevC.01  3-Jul-2019

 ----------------------------------------------------------------------
 # wb97xd def2svp scrf=(smd,solvent=acetonitrile) g09default scf=(xqc,m
 axcycle=64) force guess=read nosymm
 ----------------------------------------------------------------------

 ----------
 Title Card
 ----------
 Symbolic Z-matrix:
 Charge = -1 Multiplicity = 2

                          Input orientation:
 ---------------------------------------------------------------------
 Center     Atomic      Atomic             Coordinates (Angstroms)
 Number     Number       Type             X           Y           Z
 ---------------------------------------------------------------------
      1          6           0       -8.937569   -0.864427    1.113915
      2          6           0       -8.937169    0.523877    1.253657
      3          6           0       -8.192964   -2.140879    0.981774
      4          6           0       -6.997230   -2.825801    0.899684
      5          6           0       -9.682459   -2.142707    0.993039
      6          6           0      -10.893435   -2.843695    0.935362
      7          6           0      -10.213194    1.260708    1.344187
      8          7           0      -11.233762    1.757629    1.412809
      9          6           0       -7.673149    1.269649    1.327007
     10          7           0       -6.635469    1.740108    1.378712
     11          6           0       -5.739473   -2.124913    0.949993
     12          7           0       -4.749986   -1.457260    0.997632
     13          6           0       -6.986094   -4.290594    0.737276
     14          7           0       -7.053649   -5.429670    0.606057
     15          6           0      -10.912002   -4.265399    0.823308
     16          7           0      -10.795364   -5.465422    0.735395
     17          6           0      -12.174627   -2.100295    0.996000
     18          7           0      -13.102300   -1.471088    1.042997
 ---------------------------------------------------------------------

 SCF Done:  E(UwB97XD) =  -784.825259686     A.U. after   19 cycles

 Alpha  occ. eigenvalues --  -14.47036 -14.46820 -14.45899 -14.45686 -14.45599
 Alpha  occ. eigenvalues --  -14.45257 -10.39451 -10.39394 -10.39334 -10.39304
 Alpha  occ. eigenvalues --  -10.39084 -10.38989 -10.37244 -10.37085 -10.36291
 Alpha  occ. eigenvalues --  -10.36065 -10.36013 -10.35690  -1.03215  -1.02660
 Alpha  occ. eigenvalues --   -1.02194  -1.01733  -1.01018  -1.00023  -0.99430
 Alpha  occ. eigenvalues --   -0.91525  -0.91244  -0.88242  -0.71654  -0.71175
 Alpha  occ. eigenvalues --   -0.68009  -0.67804  -0.67146  -0.66514  -0.53942
 Alpha  occ. eigenvalues --   -0.50491  -0.50415  -0.48919  -0.48868  -0.47773
 Alpha  occ. eigenvalues --   -0.47620  -0.47546  -0.47052  -0.46591  -0.46570
 Alpha  occ. eigenvalues --   -0.45804  -0.45661  -0.45456  -0.44805  -0.44736
 Alpha  occ. eigenvalues --   -0.44483  -0.44390  -0.43672  -0.42620  -0.42334
 Alpha  occ. eigenvalues --   -0.35897  -0.35686  -0.27211
 Alpha virt. eigenvalues --    0.03495   0.04029   0.06018   0.06375   0.07642
 Alpha virt. eigenvalues --    0.08654   0.09953   0.10330   0.11288   0.11554
 Alpha virt. eigenvalues --    0.11885   0.14030   0.18352   0.18603   0.19972

  Beta  occ. eigenvalues --  -14.46795 -14.46615 -14.45754 -14.45529 -14.45449
  Beta  occ. eigenvalues --  -14.45128 -10.39478 -10.39433 -10.39364 -10.38932
  Beta  occ. eigenvalues --  -10.38725 -10.38646 -10.37359 -10.37185 -10.36366
  Beta  occ. eigenvalues --  -10.36146 -10.36091 -10.35759  -1.02909  -1.02393
  Beta  occ. eigenvalues --   -1.01909  -1.01471  -1.00691  -0.99671  -0.99033
  Beta  occ. eigenvalues --   -0.90785  -0.90457  -0.87222  -0.71507  -0.71026
  Beta  occ. eigenvalues --   -0.67780  -0.67572  -0.66881  -0.66327  -0.52986
  Beta  occ. eigenvalues --   -0.49254  -0.49191  -0.48749  -0.48676  -0.47427
  Beta  occ. eigenvalues --   -0.47282  -0.47244  -0.46752  -0.46424  -0.46380
  Beta  occ. eigenvalues --   -0.45551  -0.44906  -0.44742  -0.44605  -0.44256
  Beta  occ. eigenvalues --   -0.43946  -0.43562  -0.43535  -0.42478  -0.42174
  Beta  occ. eigenvalues --   -0.33246  -0.32939
  Beta virt. eigenvalues --   -0.09688   0.04508   0.04983   0.06125   0.06476
  Beta virt. eigenvalues --    0.07718   0.08644   0.10858   0.11226   0.11606
  Beta virt. eigenvalues --    0.11924   0.12084   0.14338   0.18653   0.18895

 Mulliken charges and spin densities:
               1          2
     1  C    0.176410  -0.051077
     2  C   -0.373025   0.325670
     3  C    0.185739  -0.036684
     4  C   -0.377340   0.296867
     5  C    0.175949  -0.035321
     6  C   -0.366914   0.308138
     7  C   -0.081384  -0.061402
     8  N    0.015827   0.087322
     9  C   -0.077659  -0.063440
    10  N    0.016317   0.091128
    11  C   -0.049079  -0.078056
    12  N   -0.036498   0.119529
    13  C   -0.075425  -0.058675
    14  N    0.012598   0.084263
    15  C   -0.035336  -0.089962
    16  N   -0.056421   0.140604
    17  C   -0.084052  -0.053828
    18  N    0.030293   0.074926
 Sum of Mulliken charges =  -1.00000   1.00000

 Dipole moment (field-independent basis, Debye):
    X=             42.6666    Y=              8.6397    Z=             -4.9106  Tot=             43.8087
 Quadrupole moment (field-independent basis, Debye-Ang):
   XX=           -549.6062   YY=           -185.2506   ZZ=           -104.8986
   XY=            -77.1734   XZ=             44.2539   YZ=              1.8180

 Normal termination of Gaussian 16 at Fri Oct 11 15:48:51 2024.
