 Gaussian 16, Revision C.01,
 Gaussian 16:  ES64L-G16RevC.01  3-Jul-2019

 ----------------------------------------------------------------------
 # wb97xd def2svp scrf=(smd,solvent=acetonitrile) g09default scf=(xqc,m
 axcycle=64) force guess=read nosymm
 ----------------------------------------------------------------------

 ----------
 Title Card
 ----------
 Symbolic Z-matrix:
 Charge = -2 Multiplicity = 1

                          Input orientation:
 ---------------------------------------------------------------------
 Center     Atomic      Atomic             Coordinates (Angstroms)
 Number     Number       Type             X           Y           Z
 ---------------------------------------------------------------------
      1          6           0       -8.938522   -0.839184    1.114639
      2          6           0       -8.936159    0.490521    1.250757
      3          6           0       -8.172906   -2.151297    0.983005
      4          6           0       -7.022408   -2.812551    0.899906
      5          6           0       -9.698531   -2.150889    0.992070
      6          6           0      -10.876239   -2.828304    0.936528
      7          6           0      -10.241318    1.264237    1.344392
      8          7           0      -11.220644    1.755420    1.412994
      9          6           0       -7.668009    1.264016    1.326387
     10          7           0       -6.626988    1.744183    1.379580
     11          6           0       -5.728938   -2.107985    0.951389
     12          7           0       -4.756281   -1.466300    0.996667
     13          6           0       -6.995796   -4.290971    0.737771
     14          7           0       -7.049498   -5.437067    0.604161
     15          6           0      -10.903288   -4.284276    0.822045
     16          7           0      -10.794780   -5.457717    0.737270
     17          6           0      -12.151039   -2.105020    0.996274
     18          7           0      -13.128550   -1.456993    1.042969
 ---------------------------------------------------------------------

 SCF Done:  E(RwB97XD) =  -784.956627918     A.U. after   15 cycles

 Alpha  occ. eigenvalues --  -14.43451 -14.43417 -14.43335 -14.43301 -14.43055
 Alpha  occ. eigenvalues --  -14.42173 -10.35476 -10.35368 -10.35350 -10.34489
 Alpha  occ. eigenvalues --  -10.34393 -10.34370 -10.34266 -10.34048 -10.34035
 Alpha  occ. eigenvalues --  -10.33814 -10.33590 -10.33094  -1.01336  -0.99583
 Alpha  occ. eigenvalues --   -0.99289  -0.98717  -0.98446  -0.97600  -0.95739
 Alpha  occ. eigenvalues --   -0.88157  -0.87782  -0.83109  -0.68162  -0.67762
 Alpha  occ. eigenvalues --   -0.64400  -0.64073  -0.63278  -0.62800  -0.50411
 Alpha  occ. eigenvalues --   -0.47583  -0.47181  -0.46099  -0.45993  -0.45533
 Alpha  occ. eigenvalues --   -0.45389  -0.45325  -0.44820  -0.44381  -0.43660
 Alpha  occ. eigenvalues --   -0.43468  -0.43037  -0.42566  -0.42518  -0.42310
 Alpha  occ. eigenvalues --   -0.41973  -0.41931  -0.40986  -0.40108  -0.40031
 Alpha  occ. eigenvalues --   -0.33135  -0.32524  -0.21728
 Alpha virt. eigenvalues --    0.06612   0.07204   0.08781   0.09134   0.09792
 Alpha virt. eigenvalues --    0.10663   0.12108   0.12682   0.13417   0.14255
 Alpha virt. eigenvalues --    0.14521   0.15987   0.19822   0.20294   0.22702

 Mulliken charges:
               1
     1  C    0.171250
     2  C   -0.500617
     3  C    0.172772
     4  C   -0.500381
     5  C    0.152637
     6  C   -0.485024
     7  C   -0.147727
     8  N    0.006622
     9  C   -0.127196
    10  N   -0.039377
    11  C   -0.118196
    12  N   -0.054370
    13  C   -0.123560
    14  N   -0.040619
    15  C   -0.104165
    16  N   -0.079051
    17  C   -0.111808
    18  N   -0.071189
 Sum of Mulliken charges =  -2.00000

 Dipole moment (field-independent basis, Debye):
    X=             86.0370    Y=             17.2048    Z=             -9.8218  Tot=             88.2884
 Quadrupole moment (field-independent basis, Debye-Ang):
   XX=           -969.0441   YY=           -226.1820   ZZ=           -114.3314
   XY=           -155.3200   XZ=             88.7277   YZ=              8.4298

 Normal termination of Gaussian 16 at Fri Oct 11 15:50:12 2024.
