 Gaussian 16, Revision C.01,
 Gaussian 16:  ES64L-G16RevC.01  3-Jul-2019

 ----------------------------------------------------------------------
 # wb97xd def2svp scrf=(smd,solvent=acetonitrile) g09default scf=(xqc,m
 axcycle=64) force guess=read nosymm
 ----------------------------------------------------------------------

 ----------
 Title Card
 ----------
 Symbolic Z-matrix:
 Charge = -1 Multiplicity = 2

                          Input orientation:
 ---------------------------------------------------------------------
 Center     Atomic      Atomic             Coordinates (Angstroms)
 Number     Number       Type             X           Y           Z
 ---------------------------------------------------------------------
      1          6           0       -8.938522   -0.839184    1.114639
      2          6           0       -8.936159    0.490521    1.250757
      3          6           0       -8.172906   -2.151297    0.983005
      4          6           0       -7.022408   -2.812551    0.899906
      5          6           0       -9.698531   -2.150889    0.992070
      6          6           0      -10.876239   -2.828304    0.936528
      7          6           0      -10.241318    1.264237    1.344392
      8          7           0      -11.220644    1.755420    1.412994
      9          6           0       -7.668009    1.264016    1.326387
     10          7           0       -6.626988    1.744183    1.379580
     11          6           0       -5.728938   -2.107985    0.951389
     12          7           0       -4.756281   -1.466300    0.996667
     13          6           0       -6.995796   -4.290971    0.737771
     14          7           0       -7.049498   -5.437067    0.604161
     15          6           0      -10.903288   -4.284276    0.822045
     16          7           0      -10.794780   -5.457717    0.737270
     17          6           0      -12.151039   -2.105020    0.996274
     18          7           0      -13.128550   -1.456993    1.042969
 ---------------------------------------------------------------------

 SCF Done:  E(UwB97XD) =  -784.805899606     A.U. after   19 cycles

 Alpha  occ. eigenvalues --  -14.46558 -14.46373 -14.46318 -14.46094 -14.45928
 Alpha  occ. eigenvalues --  -14.44726 -10.39277 -10.39072 -10.38948 -10.38927
 Alpha  occ. eigenvalues --  -10.38865 -10.38837 -10.36894 -10.36742 -10.36679
 Alpha  occ. eigenvalues --  -10.36508 -10.36338 -10.35262  -1.03660  -1.02335
 Alpha  occ. eigenvalues --   -1.01790  -1.01508  -1.00907  -1.00228  -0.99384
 Alpha  occ. eigenvalues --   -0.91984  -0.91682  -0.87283  -0.71733  -0.71351
 Alpha  occ. eigenvalues --   -0.67928  -0.67528  -0.66961  -0.66262  -0.53843
 Alpha  occ. eigenvalues --   -0.50501  -0.50284  -0.48626  -0.48563  -0.47755
 Alpha  occ. eigenvalues --   -0.47677  -0.47490  -0.47054  -0.46596  -0.45994
 Alpha  occ. eigenvalues --   -0.45968  -0.45540  -0.45089  -0.44897  -0.44840
 Alpha  occ. eigenvalues --   -0.44464  -0.44400  -0.43376  -0.42857  -0.42685
 Alpha  occ. eigenvalues --   -0.36800  -0.36257  -0.26024
 Alpha virt. eigenvalues --    0.03654   0.04359   0.06400   0.06873   0.07254
 Alpha virt. eigenvalues --    0.08326   0.09696   0.10419   0.10960   0.12054
 Alpha virt. eigenvalues --    0.12186   0.14065   0.17731   0.18229   0.19617

  Beta  occ. eigenvalues --  -14.46376 -14.46202 -14.46161 -14.45954 -14.45781
  Beta  occ. eigenvalues --  -14.44622 -10.39059 -10.38990 -10.38927 -10.38895
  Beta  occ. eigenvalues --  -10.38575 -10.38499 -10.36983 -10.36827 -10.36758
  Beta  occ. eigenvalues --  -10.36581 -10.36415 -10.35322  -1.03454  -1.02026
  Beta  occ. eigenvalues --   -1.01536  -1.01192  -1.00656  -0.99935  -0.98958
  Beta  occ. eigenvalues --   -0.91308  -0.90968  -0.86271  -0.71521  -0.71134
  Beta  occ. eigenvalues --   -0.67686  -0.67295  -0.66740  -0.66010  -0.52745
  Beta  occ. eigenvalues --   -0.49364  -0.49039  -0.48397  -0.48371  -0.47451
  Beta  occ. eigenvalues --   -0.47358  -0.47240  -0.46788  -0.46483  -0.45847
  Beta  occ. eigenvalues --   -0.45417  -0.45350  -0.44710  -0.44267  -0.44260
  Beta  occ. eigenvalues --   -0.43955  -0.43694  -0.43262  -0.42725  -0.42541
  Beta  occ. eigenvalues --   -0.34546  -0.33855
  Beta virt. eigenvalues --   -0.08390   0.05006   0.05553   0.06509   0.06959
  Beta virt. eigenvalues --    0.07271   0.08374   0.10641   0.11020   0.11212
  Beta virt. eigenvalues --    0.12238   0.12763   0.14367   0.18065   0.18524

 Mulliken charges and spin densities:
               1          2
     1  C    0.208080  -0.040528
     2  C   -0.393119   0.311687
     3  C    0.215057  -0.022535
     4  C   -0.401388   0.288300
     5  C    0.198588   0.000747
     6  C   -0.384443   0.295649
     7  C   -0.102577  -0.046122
     8  N    0.044153   0.060270
     9  C   -0.080352  -0.059693
    10  N    0.008292   0.085810
    11  C   -0.072061  -0.060943
    12  N   -0.004901   0.090933
    13  C   -0.078558  -0.056087
    14  N    0.005728   0.081500
    15  C   -0.055236  -0.068958
    16  N   -0.024400   0.105794
    17  C   -0.064451  -0.065173
    18  N   -0.018410   0.099351
 Sum of Mulliken charges =  -1.00000   1.00000

 Dipole moment (field-independent basis, Debye):
    X=             42.9885    Y=              8.7105    Z=             -4.9002  Tot=             44.1350
 Quadrupole moment (field-independent basis, Debye-Ang):
   XX=           -555.5359   YY=           -184.3679   ZZ=           -104.8126
   XY=            -78.3476   XZ=             44.4803   YZ=              1.9601

 Normal termination of Gaussian 16 at Fri Oct 11 15:49:47 2024.
