 Gaussian 16, Revision C.01,
 Gaussian 16:  ES64L-G16RevC.01  3-Jul-2019

 ----------------------------------------------------------------------
 # wb97xd def2svp scrf=(smd,solvent=acetonitrile) g09default scf=(xqc,m
 axcycle=64) force guess=read nosymm
 ----------------------------------------------------------------------

 ----------
 Title Card
 ----------
 Symbolic Z-matrix:
 Charge = -2 Multiplicity = 1

                          Input orientation:
 ---------------------------------------------------------------------
 Center     Atomic      Atomic             Coordinates (Angstroms)
 Number     Number       Type             X           Y           Z
 ---------------------------------------------------------------------
      1          6           0       -8.938115   -0.828868    1.113898
      2          6           0       -8.936898    0.460200    1.247702
      3          6           0       -8.172644   -2.149846    0.983782
      4          6           0       -7.043278   -2.800509    0.899813
      5          6           0       -9.704123   -2.154353    0.992187
      6          6           0      -10.850774   -2.808849    0.938362
      7          6           0      -10.231313    1.246299    1.342374
      8          7           0      -11.216924    1.757872    1.413398
      9          6           0       -7.667489    1.252079    1.324251
     10          7           0       -6.641795    1.737206    1.379275
     11          6           0       -5.736761   -2.102978    0.952470
     12          7           0       -4.771672   -1.479408    0.996094
     13          6           0       -7.005978   -4.281702    0.740005
     14          7           0       -7.045305   -5.425544    0.605980
     15          6           0      -10.894852   -4.287168    0.822159
     16          7           0      -10.794105   -5.436768    0.738708
     17          6           0      -12.129168   -2.109075    0.995630
     18          7           0      -13.128699   -1.458766    1.042718
 ---------------------------------------------------------------------

 SCF Done:  E(RwB97XD) =  -784.937160403     A.U. after   14 cycles

 Alpha  occ. eigenvalues --  -14.43564 -14.43167 -14.43140 -14.43041 -14.42940
 Alpha  occ. eigenvalues --  -14.42517 -10.34837 -10.34756 -10.34738 -10.34602
 Alpha  occ. eigenvalues --  -10.34107 -10.34093 -10.33976 -10.33846 -10.33788
 Alpha  occ. eigenvalues --  -10.33470 -10.33400 -10.33345  -1.00880  -0.99844
 Alpha  occ. eigenvalues --   -0.99655  -0.99154  -0.98782  -0.97405  -0.95555
 Alpha  occ. eigenvalues --   -0.88500  -0.88381  -0.82735  -0.68254  -0.68156
 Alpha  occ. eigenvalues --   -0.64241  -0.63926  -0.63639  -0.62829  -0.50557
 Alpha  occ. eigenvalues --   -0.47632  -0.47283  -0.46050  -0.45948  -0.45499
 Alpha  occ. eigenvalues --   -0.45390  -0.45317  -0.44817  -0.44190  -0.43580
 Alpha  occ. eigenvalues --   -0.43492  -0.43077  -0.42720  -0.42530  -0.42462
 Alpha  occ. eigenvalues --   -0.41932  -0.41850  -0.40943  -0.40090  -0.39829
 Alpha  occ. eigenvalues --   -0.33603  -0.32953  -0.21044
 Alpha virt. eigenvalues --    0.06936   0.07560   0.08891   0.09534   0.09752
 Alpha virt. eigenvalues --    0.10563   0.12313   0.13124   0.13697   0.14191
 Alpha virt. eigenvalues --    0.14510   0.16125   0.19749   0.20220   0.22703

 Mulliken charges:
               1
     1  C    0.195327
     2  C   -0.517428
     3  C    0.187508
     4  C   -0.516853
     5  C    0.174965
     6  C   -0.498290
     7  C   -0.150866
     8  N   -0.000718
     9  C   -0.137010
    10  N   -0.021934
    11  C   -0.134617
    12  N   -0.034766
    13  C   -0.133379
    14  N   -0.037476
    15  C   -0.122589
    16  N   -0.046587
    17  C   -0.110268
    18  N   -0.095016
 Sum of Mulliken charges =  -2.00000

 Dipole moment (field-independent basis, Debye):
    X=             86.2598    Y=             17.1132    Z=             -9.8272  Tot=             88.4883
 Quadrupole moment (field-independent basis, Debye-Ang):
   XX=           -972.9628   YY=           -224.3510   ZZ=           -114.1257
   XY=           -153.6166   XZ=             89.1174   YZ=              8.4343

 Normal termination of Gaussian 16 at Fri Oct 11 15:51:05 2024.
