 Gaussian 16, Revision C.01,
 Gaussian 16:  ES64L-G16RevC.01  3-Jul-2019

 ----------------------------------------------------------------------
 # wb97xd def2svp scrf=(smd,solvent=acetonitrile) g09default scf=(xqc,m
 axcycle=64) force guess=read nosymm
 ----------------------------------------------------------------------

 ----------
 Title Card
 ----------
 Symbolic Z-matrix:
 Charge = -1 Multiplicity = 2

                          Input orientation:
 ---------------------------------------------------------------------
 Center     Atomic      Atomic             Coordinates (Angstroms)
 Number     Number       Type             X           Y           Z
 ---------------------------------------------------------------------
      1          6           0       -8.938115   -0.828868    1.113898
      2          6           0       -8.936898    0.460200    1.247702
      3          6           0       -8.172644   -2.149846    0.983782
      4          6           0       -7.043278   -2.800509    0.899813
      5          6           0       -9.704123   -2.154353    0.992187
      6          6           0      -10.850774   -2.808849    0.938362
      7          6           0      -10.231313    1.246299    1.342374
      8          7           0      -11.216924    1.757872    1.413398
      9          6           0       -7.667489    1.252079    1.324251
     10          7           0       -6.641795    1.737206    1.379275
     11          6           0       -5.736761   -2.102978    0.952470
     12          7           0       -4.771672   -1.479408    0.996094
     13          6           0       -7.005978   -4.281702    0.740005
     14          7           0       -7.045305   -5.425544    0.605980
     15          6           0      -10.894852   -4.287168    0.822159
     16          7           0      -10.794105   -5.436768    0.738708
     17          6           0      -12.129168   -2.109075    0.995630
     18          7           0      -13.128699   -1.458766    1.042718
 ---------------------------------------------------------------------

 SCF Done:  E(UwB97XD) =  -784.793642412     A.U. after   17 cycles

 Alpha  occ. eigenvalues --  -14.46734 -14.46062 -14.45981 -14.45910 -14.45677
 Alpha  occ. eigenvalues --  -14.45092 -10.38903 -10.38644 -10.38590 -10.38498
 Alpha  occ. eigenvalues --  -10.38437 -10.38402 -10.37045 -10.36431 -10.36384
 Alpha  occ. eigenvalues --  -10.36278 -10.36081 -10.35571  -1.03295  -1.02470
 Alpha  occ. eigenvalues --   -1.02096  -1.01812  -1.01227  -1.00208  -0.99235
 Alpha  occ. eigenvalues --   -0.92361  -0.92257  -0.86987  -0.71917  -0.71766
 Alpha  occ. eigenvalues --   -0.67762  -0.67477  -0.67344  -0.66233  -0.54076
 Alpha  occ. eigenvalues --   -0.50566  -0.50384  -0.48549  -0.48454  -0.47707
 Alpha  occ. eigenvalues --   -0.47607  -0.47483  -0.47055  -0.46370  -0.45876
 Alpha  occ. eigenvalues --   -0.45804  -0.45540  -0.45188  -0.45082  -0.44764
 Alpha  occ. eigenvalues --   -0.44497  -0.44432  -0.43409  -0.43001  -0.42571
 Alpha  occ. eigenvalues --   -0.37245  -0.36671  -0.25310
 Alpha virt. eigenvalues --    0.03897   0.04671   0.06490   0.07105   0.07289
 Alpha virt. eigenvalues --    0.08313   0.09922   0.10855   0.11239   0.12030
 Alpha virt. eigenvalues --    0.12138   0.14217   0.17664   0.18169   0.19625

  Beta  occ. eigenvalues --  -14.46543 -14.45917 -14.45841 -14.45766 -14.45549
  Beta  occ. eigenvalues --  -14.44986 -10.38589 -10.38542 -10.38471 -10.38414
  Beta  occ. eigenvalues --  -10.38289 -10.38202 -10.37135 -10.36505 -10.36456
  Beta  occ. eigenvalues --  -10.36351 -10.36148 -10.35630  -1.03064  -1.02189
  Beta  occ. eigenvalues --   -1.01875  -1.01530  -1.00993  -0.99886  -0.98797
  Beta  occ. eigenvalues --   -0.91715  -0.91599  -0.85979  -0.71672  -0.71517
  Beta  occ. eigenvalues --   -0.67521  -0.67243  -0.67108  -0.65988  -0.52919
  Beta  occ. eigenvalues --   -0.49437  -0.49162  -0.48313  -0.48255  -0.47406
  Beta  occ. eigenvalues --   -0.47314  -0.47247  -0.46792  -0.46273  -0.45760
  Beta  occ. eigenvalues --   -0.45426  -0.45255  -0.44644  -0.44447  -0.44340
  Beta  occ. eigenvalues --   -0.44147  -0.43595  -0.43287  -0.42867  -0.42418
  Beta  occ. eigenvalues --   -0.35167  -0.34456
  Beta virt. eigenvalues --   -0.07642   0.05410   0.05971   0.06589   0.07119
  Beta virt. eigenvalues --    0.07377   0.08376   0.10845   0.11300   0.11653
  Beta virt. eigenvalues --    0.12192   0.12710   0.14497   0.17985   0.18455

 Mulliken charges and spin densities:
               1          2
     1  C    0.237069  -0.029980
     2  C   -0.416626   0.293081
     3  C    0.233405  -0.010734
     4  C   -0.417802   0.289495
     5  C    0.225089   0.010782
     6  C   -0.402515   0.285725
     7  C   -0.105939  -0.045412
     8  N    0.038441   0.061781
     9  C   -0.090574  -0.051962
    10  N    0.022298   0.074140
    11  C   -0.086890  -0.055609
    12  N    0.012769   0.083205
    13  C   -0.086737  -0.054911
    14  N    0.009594   0.081201
    15  C   -0.074006  -0.056527
    16  N    0.002039   0.084683
    17  C   -0.061698  -0.069946
    18  N   -0.037916   0.110989
 Sum of Mulliken charges =  -1.00000   1.00000

 Dipole moment (field-independent basis, Debye):
    X=             43.1343    Y=              8.6272    Z=             -4.9089  Tot=             44.2616
 Quadrupole moment (field-independent basis, Debye-Ang):
   XX=           -558.1241   YY=           -183.4779   ZZ=           -104.5877
   XY=            -77.2342   XZ=             44.7608   YZ=              1.9012

 Normal termination of Gaussian 16 at Fri Oct 11 15:50:42 2024.
