 Gaussian 16, Revision C.01,
 Gaussian 16:  ES64L-G16RevC.01  3-Jul-2019

 ----------------------------------------------------------------------
 # wb97xd def2svp scrf=(smd,solvent=acetonitrile) g09default scf=(xqc,m
 axcycle=64) force guess=read nosymm
 ----------------------------------------------------------------------

 ----------
 Title Card
 ----------
 Symbolic Z-matrix:
 Charge = -2 Multiplicity = 1

                          Input orientation:
 ---------------------------------------------------------------------
 Center     Atomic      Atomic             Coordinates (Angstroms)
 Number     Number       Type             X           Y           Z
 ---------------------------------------------------------------------
      1          6           0       -8.936443   -0.848185    1.112055
      2          6           0       -8.938458    0.465836    1.247345
      3          6           0       -8.182230   -2.144418    0.981111
      4          6           0       -7.061386   -2.793307    0.900875
      5          6           0       -9.686696   -2.145219    0.993823
      6          6           0      -10.845107   -2.808860    0.938779
      7          6           0      -10.219340    1.236377    1.342548
      8          7           0      -11.182140    1.738929    1.409628
      9          6           0       -7.690816    1.233764    1.320680
     10          7           0       -6.665140    1.725767    1.377917
     11          6           0       -5.746784   -2.107629    0.952974
     12          7           0       -4.800799   -1.496000    0.996468
     13          6           0       -7.006382   -4.256093    0.744250
     14          7           0       -7.046873   -5.406598    0.611582
     15          6           0      -10.891665   -4.259131    0.824096
     16          7           0      -10.796260   -5.413078    0.737337
     17          6           0      -12.103105   -2.124910    0.993066
     18          7           0      -13.110267   -1.467423    1.044271
 ---------------------------------------------------------------------

 SCF Done:  E(RwB97XD) =  -784.950789794     A.U. after   14 cycles

 Alpha  occ. eigenvalues --  -14.43473 -14.43210 -14.43000 -14.42668 -14.42622
 Alpha  occ. eigenvalues --  -14.41740 -10.34775 -10.34615 -10.34564 -10.34492
 Alpha  occ. eigenvalues --  -10.34098 -10.33897 -10.33518 -10.33487 -10.33262
 Alpha  occ. eigenvalues --  -10.33227 -10.32853 -10.32571  -1.01577  -1.00395
 Alpha  occ. eigenvalues --   -0.99518  -0.99100  -0.98766  -0.97113  -0.96153
 Alpha  occ. eigenvalues --   -0.88682  -0.88300  -0.83686  -0.68722  -0.68337
 Alpha  occ. eigenvalues --   -0.64652  -0.64056  -0.63982  -0.63057  -0.50962
 Alpha  occ. eigenvalues --   -0.47949  -0.47483  -0.46062  -0.45898  -0.45424
 Alpha  occ. eigenvalues --   -0.45234  -0.45169  -0.44736  -0.44429  -0.43879
 Alpha  occ. eigenvalues --   -0.43767  -0.43048  -0.43033  -0.42539  -0.42529
 Alpha  occ. eigenvalues --   -0.41926  -0.41558  -0.40954  -0.40264  -0.39677
 Alpha  occ. eigenvalues --   -0.33320  -0.32518  -0.21496
 Alpha virt. eigenvalues --    0.06990   0.07724   0.08730   0.09769   0.10337
 Alpha virt. eigenvalues --    0.11179   0.12241   0.13552   0.14117   0.14812
 Alpha virt. eigenvalues --    0.15307   0.16304   0.20230   0.20641   0.23367

 Mulliken charges:
               1
     1  C    0.183067
     2  C   -0.520077
     3  C    0.203430
     4  C   -0.521996
     5  C    0.172350
     6  C   -0.491051
     7  C   -0.161329
     8  N    0.025268
     9  C   -0.145199
    10  N   -0.024596
    11  C   -0.147761
    12  N   -0.005688
    13  C   -0.135712
    14  N   -0.040512
    15  C   -0.126234
    16  N   -0.048317
    17  C   -0.105710
    18  N   -0.109932
 Sum of Mulliken charges =  -2.00000

 Dipole moment (field-independent basis, Debye):
    X=             86.7016    Y=             17.0236    Z=             -9.8458  Tot=             88.9039
 Quadrupole moment (field-independent basis, Debye-Ang):
   XX=           -980.1831   YY=           -224.5122   ZZ=           -113.7766
   XY=           -154.3072   XZ=             89.6315   YZ=              8.3093

 Normal termination of Gaussian 16 at Fri Oct 11 15:52:02 2024.
