 Gaussian 16, Revision C.01,
 Gaussian 16:  ES64L-G16RevC.01  3-Jul-2019

 ----------------------------------------------------------------------
 # wb97xd def2svp scrf=(smd,solvent=acetonitrile) g09default scf=(xqc,m
 axcycle=64) force guess=read nosymm
 ----------------------------------------------------------------------

 ----------
 Title Card
 ----------
 Symbolic Z-matrix:
 Charge = -1 Multiplicity = 2

                          Input orientation:
 ---------------------------------------------------------------------
 Center     Atomic      Atomic             Coordinates (Angstroms)
 Number     Number       Type             X           Y           Z
 ---------------------------------------------------------------------
      1          6           0       -8.936443   -0.848185    1.112055
      2          6           0       -8.938458    0.465836    1.247345
      3          6           0       -8.182230   -2.144418    0.981111
      4          6           0       -7.061386   -2.793307    0.900875
      5          6           0       -9.686696   -2.145219    0.993823
      6          6           0      -10.845107   -2.808860    0.938779
      7          6           0      -10.219340    1.236377    1.342548
      8          7           0      -11.182140    1.738929    1.409628
      9          6           0       -7.690816    1.233764    1.320680
     10          7           0       -6.665140    1.725767    1.377917
     11          6           0       -5.746784   -2.107629    0.952974
     12          7           0       -4.800799   -1.496000    0.996468
     13          6           0       -7.006382   -4.256093    0.744250
     14          7           0       -7.046873   -5.406598    0.611582
     15          6           0      -10.891665   -4.259131    0.824096
     16          7           0      -10.796260   -5.413078    0.737337
     17          6           0      -12.103105   -2.124910    0.993066
     18          7           0      -13.110267   -1.467423    1.044271
 ---------------------------------------------------------------------

 SCF Done:  E(UwB97XD) =  -784.802303595     A.U. after   19 cycles

 Alpha  occ. eigenvalues --  -14.46811 -14.46091 -14.46030 -14.45570 -14.45381
 Alpha  occ. eigenvalues --  -14.44364 -10.38539 -10.38385 -10.38372 -10.38313
 Alpha  occ. eigenvalues --  -10.38161 -10.38102 -10.37007 -10.36385 -10.36282
 Alpha  occ. eigenvalues --  -10.35866 -10.35703 -10.34790  -1.04000  -1.03030
 Alpha  occ. eigenvalues --   -1.02166  -1.01899  -1.01293  -1.00309  -0.99390
 Alpha  occ. eigenvalues --   -0.92520  -0.92226  -0.87903  -0.72349  -0.71985
 Alpha  occ. eigenvalues --   -0.68237  -0.67827  -0.67460  -0.66550  -0.54467
 Alpha  occ. eigenvalues --   -0.50909  -0.50624  -0.48644  -0.48534  -0.47670
 Alpha  occ. eigenvalues --   -0.47548  -0.47362  -0.46963  -0.46712  -0.46225
 Alpha  occ. eigenvalues --   -0.46153  -0.45622  -0.45516  -0.45140  -0.44966
 Alpha  occ. eigenvalues --   -0.44397  -0.44227  -0.43595  -0.42997  -0.42327
 Alpha  occ. eigenvalues --   -0.36984  -0.36290  -0.25803
 Alpha virt. eigenvalues --    0.03967   0.04850   0.06260   0.07525   0.07797
 Alpha virt. eigenvalues --    0.08760   0.09734   0.11314   0.11649   0.12550
 Alpha virt. eigenvalues --    0.12946   0.14440   0.18273   0.18697   0.20247

  Beta  occ. eigenvalues --  -14.46593 -14.45941 -14.45867 -14.45419 -14.45256
  Beta  occ. eigenvalues --  -14.44257 -10.38366 -10.38355 -10.38219 -10.38169
  Beta  occ. eigenvalues --  -10.38019 -10.37780 -10.37108 -10.36460 -10.36361
  Beta  occ. eigenvalues --  -10.35941 -10.35768 -10.34849  -1.03776  -1.02748
  Beta  occ. eigenvalues --   -1.01887  -1.01598  -1.01037  -0.99934  -0.99006
  Beta  occ. eigenvalues --   -0.91868  -0.91530  -0.86904  -0.72135  -0.71762
  Beta  occ. eigenvalues --   -0.67996  -0.67605  -0.67224  -0.66293  -0.53365
  Beta  occ. eigenvalues --   -0.49776  -0.49396  -0.48420  -0.48331  -0.47346
  Beta  occ. eigenvalues --   -0.47247  -0.47126  -0.46708  -0.46567  -0.46104
  Beta  occ. eigenvalues --   -0.45507  -0.45495  -0.44814  -0.44721  -0.44253
  Beta  occ. eigenvalues --   -0.44223  -0.43469  -0.43353  -0.42872  -0.42164
  Beta  occ. eigenvalues --   -0.34792  -0.33901
  Beta virt. eigenvalues --   -0.08175   0.05371   0.06052   0.06384   0.07600
  Beta virt. eigenvalues --    0.07830   0.08805   0.10734   0.11698   0.12080
  Beta virt. eigenvalues --    0.13003   0.13291   0.14693   0.18555   0.18941

 Mulliken charges and spin densities:
               1          2
     1  C    0.220548  -0.035785
     2  C   -0.414050   0.307462
     3  C    0.242729  -0.028935
     4  C   -0.424158   0.284682
     5  C    0.220056   0.010217
     6  C   -0.395868   0.284476
     7  C   -0.114098  -0.045394
     8  N    0.062629   0.061710
     9  C   -0.096555  -0.058684
    10  N    0.023512   0.087502
    11  C   -0.101523  -0.050260
    12  N    0.037023   0.072365
    13  C   -0.089885  -0.058147
    14  N    0.007772   0.086932
    15  C   -0.076477  -0.061177
    16  N    0.002911   0.094478
    17  C   -0.055785  -0.078094
    18  N   -0.048781   0.126652
 Sum of Mulliken charges =  -1.00000   1.00000

 Dipole moment (field-independent basis, Debye):
    X=             43.3544    Y=              8.6282    Z=             -4.9159  Tot=             44.4771
 Quadrupole moment (field-independent basis, Debye-Ang):
   XX=           -561.5490   YY=           -183.3584   ZZ=           -104.2586
   XY=            -78.0340   XZ=             44.9859   YZ=              1.9042

 Normal termination of Gaussian 16 at Fri Oct 11 15:51:38 2024.
