 Gaussian 16, Revision C.01,
 Gaussian 16:  ES64L-G16RevC.01  3-Jul-2019

 ----------------------------------------------------------------------
 # wb97xd def2svp scrf=(smd,solvent=acetonitrile) g09default scf=(xqc,m
 axcycle=64) force guess=read nosymm
 ----------------------------------------------------------------------

 ----------
 Title Card
 ----------
 Symbolic Z-matrix:
 Charge = -2 Multiplicity = 1

                          Input orientation:
 ---------------------------------------------------------------------
 Center     Atomic      Atomic             Coordinates (Angstroms)
 Number     Number       Type             X           Y           Z
 ---------------------------------------------------------------------
      1          6           0       -8.934932   -0.870268    1.110714
      2          6           0       -8.941914    0.501609    1.250508
      3          6           0       -8.180884   -2.142841    0.981959
      4          6           0       -7.057391   -2.803886    0.900545
      5          6           0       -9.701130   -2.152117    0.993272
      6          6           0      -10.835619   -2.808491    0.938905
      7          6           0      -10.222883    1.229520    1.341232
      8          7           0      -11.182145    1.746296    1.411821
      9          6           0       -7.688241    1.228123    1.321374
     10          7           0       -6.662848    1.728090    1.378962
     11          6           0       -5.736196   -2.094714    0.952526
     12          7           0       -4.802966   -1.503399    0.994893
     13          6           0       -7.011100   -4.249662    0.743725
     14          7           0       -7.042947   -5.415905    0.607490
     15          6           0      -10.885371   -4.255733    0.825560
     16          7           0      -10.795238   -5.425528    0.739575
     17          6           0      -12.121670   -2.109113    0.993936
     18          7           0      -13.106422   -1.472158    1.041808
 ---------------------------------------------------------------------

 SCF Done:  E(RwB97XD) =  -784.955906524     A.U. after   14 cycles

 Alpha  occ. eigenvalues --  -14.43535 -14.43504 -14.43393 -14.42318 -14.42221
 Alpha  occ. eigenvalues --  -14.41421 -10.34907 -10.34760 -10.34751 -10.34433
 Alpha  occ. eigenvalues --  -10.34388 -10.34333 -10.33340 -10.33290 -10.33253
 Alpha  occ. eigenvalues --  -10.33128 -10.32862 -10.32365  -1.01196  -1.01074
 Alpha  occ. eigenvalues --   -0.99277  -0.98991  -0.98323  -0.97835  -0.96422
 Alpha  occ. eigenvalues --   -0.88869  -0.87754  -0.83665  -0.68926  -0.67784
 Alpha  occ. eigenvalues --   -0.64869  -0.64089  -0.63562  -0.62916  -0.50901
 Alpha  occ. eigenvalues --   -0.47818  -0.47627  -0.46074  -0.45956  -0.45480
 Alpha  occ. eigenvalues --   -0.45371  -0.44990  -0.44681  -0.44232  -0.44059
 Alpha  occ. eigenvalues --   -0.43521  -0.43282  -0.43238  -0.42512  -0.42267
 Alpha  occ. eigenvalues --   -0.42092  -0.41863  -0.41111  -0.40346  -0.39795
 Alpha  occ. eigenvalues --   -0.33169  -0.32313  -0.21701
 Alpha virt. eigenvalues --    0.06838   0.07797   0.08788   0.09727   0.10330
 Alpha virt. eigenvalues --    0.11230   0.12231   0.13715   0.14573   0.14724
 Alpha virt. eigenvalues --    0.15467   0.16365   0.20247   0.20617   0.23559

 Mulliken charges:
               1
     1  C    0.140170
     2  C   -0.508985
     3  C    0.194076
     4  C   -0.515435
     5  C    0.188351
     6  C   -0.496417
     7  C   -0.159668
     8  N    0.019415
     9  C   -0.145327
    10  N   -0.033836
    11  C   -0.153367
    12  N    0.015015
    13  C   -0.127562
    14  N   -0.058716
    15  C   -0.115215
    16  N   -0.062623
    17  C   -0.117561
    18  N   -0.062315
 Sum of Mulliken charges =  -2.00000

 Dipole moment (field-independent basis, Debye):
    X=             86.0087    Y=             16.3687    Z=             -9.9134  Tot=             88.1119
 Quadrupole moment (field-independent basis, Debye-Ang):
   XX=           -965.1551   YY=           -225.2540   ZZ=           -113.9843
   XY=           -146.8333   XZ=             89.5732   YZ=              7.4339

 Normal termination of Gaussian 16 at Fri Oct 11 15:52:59 2024.
