 Gaussian 16, Revision C.01,
 Gaussian 16:  ES64L-G16RevC.01  3-Jul-2019

 ----------------------------------------------------------------------
 # wb97xd def2svp scrf=(smd,solvent=acetonitrile) g09default scf=(xqc,m
 axcycle=64) force guess=read nosymm
 ----------------------------------------------------------------------

 ----------
 Title Card
 ----------
 Symbolic Z-matrix:
 Charge = -1 Multiplicity = 2

                          Input orientation:
 ---------------------------------------------------------------------
 Center     Atomic      Atomic             Coordinates (Angstroms)
 Number     Number       Type             X           Y           Z
 ---------------------------------------------------------------------
      1          6           0       -8.934932   -0.870268    1.110714
      2          6           0       -8.941914    0.501609    1.250508
      3          6           0       -8.180884   -2.142841    0.981959
      4          6           0       -7.057391   -2.803886    0.900545
      5          6           0       -9.701130   -2.152117    0.993272
      6          6           0      -10.835619   -2.808491    0.938905
      7          6           0      -10.222883    1.229520    1.341232
      8          7           0      -11.182145    1.746296    1.411821
      9          6           0       -7.688241    1.228123    1.321374
     10          7           0       -6.662848    1.728090    1.378962
     11          6           0       -5.736196   -2.094714    0.952526
     12          7           0       -4.802966   -1.503399    0.994893
     13          6           0       -7.011100   -4.249662    0.743725
     14          7           0       -7.042947   -5.415905    0.607490
     15          6           0      -10.885371   -4.255733    0.825560
     16          7           0      -10.795238   -5.425528    0.739575
     17          6           0      -12.121670   -2.109113    0.993936
     18          7           0      -13.106422   -1.472158    1.041808
 ---------------------------------------------------------------------

 SCF Done:  E(UwB97XD) =  -784.805337840     A.U. after   19 cycles

 Alpha  occ. eigenvalues --  -14.46445 -14.46400 -14.46396 -14.45482 -14.44864
 Alpha  occ. eigenvalues --  -14.44341 -10.38608 -10.38551 -10.38424 -10.38387
 Alpha  occ. eigenvalues --  -10.38256 -10.38234 -10.36686 -10.36678 -10.36663
 Alpha  occ. eigenvalues --  -10.35803 -10.35269 -10.34777  -1.03853  -1.03452
 Alpha  occ. eigenvalues --   -1.02249  -1.01787  -1.00982  -1.00313  -0.99898
 Alpha  occ. eigenvalues --   -0.92588  -0.91803  -0.87913  -0.72469  -0.71422
 Alpha  occ. eigenvalues --   -0.68334  -0.67679  -0.67248  -0.66587  -0.54369
 Alpha  occ. eigenvalues --   -0.50889  -0.50656  -0.48812  -0.48484  -0.47718
 Alpha  occ. eigenvalues --   -0.47528  -0.47322  -0.46933  -0.46531  -0.46506
 Alpha  occ. eigenvalues --   -0.46086  -0.45766  -0.45719  -0.45068  -0.44970
 Alpha  occ. eigenvalues --   -0.44483  -0.44228  -0.43597  -0.42969  -0.42555
 Alpha  occ. eigenvalues --   -0.36725  -0.36227  -0.26048
 Alpha virt. eigenvalues --    0.03973   0.04808   0.06537   0.07419   0.07791
 Alpha virt. eigenvalues --    0.08700   0.09944   0.11486   0.12167   0.12233
 Alpha virt. eigenvalues --    0.13053   0.14474   0.18327   0.18646   0.20474

  Beta  occ. eigenvalues --  -14.46280 -14.46246 -14.46225 -14.45303 -14.44759
  Beta  occ. eigenvalues --  -14.44211 -10.38573 -10.38388 -10.38313 -10.38193
  Beta  occ. eigenvalues --  -10.38075 -10.37943 -10.36763 -10.36757 -10.36747
  Beta  occ. eigenvalues --  -10.35891 -10.35326 -10.34846  -1.03586  -1.03235
  Beta  occ. eigenvalues --   -1.01917  -1.01478  -1.00687  -1.00049  -0.99500
  Beta  occ. eigenvalues --   -0.91974  -0.91038  -0.86889  -0.72268  -0.71206
  Beta  occ. eigenvalues --   -0.68117  -0.67413  -0.67005  -0.66344  -0.53294
  Beta  occ. eigenvalues --   -0.49677  -0.49497  -0.48610  -0.48273  -0.47416
  Beta  occ. eigenvalues --   -0.47258  -0.47050  -0.46677  -0.46386  -0.46364
  Beta  occ. eigenvalues --   -0.45624  -0.45339  -0.44952  -0.44912  -0.44104
  Beta  occ. eigenvalues --   -0.43956  -0.43788  -0.43470  -0.42840  -0.42416
  Beta  occ. eigenvalues --   -0.34641  -0.33577
  Beta virt. eigenvalues --   -0.08383   0.05196   0.06097   0.06635   0.07495
  Beta virt. eigenvalues --    0.07850   0.08740   0.10798   0.12193   0.12259
  Beta virt. eigenvalues --    0.13073   0.13152   0.14726   0.18591   0.18916

 Mulliken charges and spin densities:
               1          2
     1  C    0.178291  -0.018218
     2  C   -0.390187   0.341023
     3  C    0.231553  -0.032133
     4  C   -0.416962   0.284414
     5  C    0.231549  -0.016567
     6  C   -0.405960   0.267623
     7  C   -0.107697  -0.052972
     8  N    0.061707   0.075377
     9  C   -0.091845  -0.067638
    10  N    0.019955   0.104165
    11  C   -0.108056  -0.044476
    12  N    0.052811   0.060825
    13  C   -0.081633  -0.064878
    14  N   -0.006812   0.099508
    15  C   -0.069086  -0.062086
    16  N   -0.011651   0.095517
    17  C   -0.073077  -0.059084
    18  N   -0.012898   0.089602
 Sum of Mulliken charges =  -1.00000   1.00000

 Dipole moment (field-independent basis, Debye):
    X=             43.0165    Y=              8.4292    Z=             -4.9363  Tot=             44.1117
 Quadrupole moment (field-independent basis, Debye-Ang):
   XX=           -554.3763   YY=           -183.9895   ZZ=           -104.3535
   XY=            -75.5067   XZ=             44.8465   YZ=              1.5942

 Normal termination of Gaussian 16 at Fri Oct 11 15:52:36 2024.
