 Gaussian 16, Revision C.01,
 Gaussian 16:  ES64L-G16RevC.01  3-Jul-2019

 ----------------------------------------------------------------------
 # wb97xd def2svp scrf=(smd,solvent=acetonitrile) g09default scf=(xqc,m
 axcycle=64) force guess=read nosymm
 ----------------------------------------------------------------------

 ----------
 Title Card
 ----------
 Symbolic Z-matrix:
 Charge = -2 Multiplicity = 1

                          Input orientation:
 ---------------------------------------------------------------------
 Center     Atomic      Atomic             Coordinates (Angstroms)
 Number     Number       Type             X           Y           Z
 ---------------------------------------------------------------------
      1          6           0       -8.936281   -0.860535    1.113129
      2          6           0       -8.940625    0.508060    1.251261
      3          6           0       -8.192716   -2.139598    0.983574
      4          6           0       -7.025141   -2.822629    0.899216
      5          6           0       -9.694992   -2.150774    0.993073
      6          6           0      -10.863253   -2.818940    0.937999
      7          6           0      -10.215491    1.240548    1.341320
      8          7           0      -11.218691    1.764787    1.415990
      9          6           0       -7.671114    1.253678    1.325466
     10          7           0       -6.651549    1.731384    1.379854
     11          6           0       -5.724290   -2.099193    0.951091
     12          7           0       -4.780228   -1.490129    0.994056
     13          6           0       -7.000314   -4.261422    0.740210
     14          7           0       -7.043757   -5.435207    0.601526
     15          6           0      -10.896283   -4.274644    0.825400
     16          7           0      -10.792804   -5.443364    0.741687
     17          6           0      -12.147569   -2.103853    0.994149
     18          7           0      -13.114795   -1.468347    1.039804
 ---------------------------------------------------------------------

 SCF Done:  E(RwB97XD) =  -784.981610108     A.U. after   14 cycles

 Alpha  occ. eigenvalues --  -14.43507 -14.43359 -14.43249 -14.42572 -14.42503
 Alpha  occ. eigenvalues --  -14.42404 -10.35463 -10.35374 -10.35332 -10.34472
 Alpha  occ. eigenvalues --  -10.34402 -10.34191 -10.33695 -10.33544 -10.33530
 Alpha  occ. eigenvalues --  -10.33506 -10.33497 -10.33380  -1.00455  -1.00178
 Alpha  occ. eigenvalues --   -0.99468  -0.99319  -0.98161  -0.97860  -0.96566
 Alpha  occ. eigenvalues --   -0.88103  -0.87597  -0.83795  -0.68346  -0.67643
 Alpha  occ. eigenvalues --   -0.64493  -0.64055  -0.63512  -0.63067  -0.50666
 Alpha  occ. eigenvalues --   -0.47511  -0.47428  -0.46101  -0.46021  -0.45460
 Alpha  occ. eigenvalues --   -0.45323  -0.45204  -0.44734  -0.44047  -0.43827
 Alpha  occ. eigenvalues --   -0.43353  -0.43196  -0.43052  -0.42553  -0.42310
 Alpha  occ. eigenvalues --   -0.42250  -0.41797  -0.41314  -0.40395  -0.40001
 Alpha  occ. eigenvalues --   -0.32573  -0.32363  -0.22189
 Alpha virt. eigenvalues --    0.06695   0.07317   0.08884   0.09420   0.10158
 Alpha virt. eigenvalues --    0.10988   0.12423   0.13168   0.13976   0.14322
 Alpha virt. eigenvalues --    0.14494   0.16128   0.20270   0.20474   0.23174

 Mulliken charges:
               1
     1  C    0.149386
     2  C   -0.498869
     3  C    0.162539
     4  C   -0.497787
     5  C    0.169040
     6  C   -0.487997
     7  C   -0.137966
     8  N   -0.024295
     9  C   -0.137526
    10  N   -0.015721
    11  C   -0.139303
    12  N   -0.007983
    13  C   -0.114477
    14  N   -0.075403
    15  C   -0.109632
    16  N   -0.067978
    17  C   -0.119653
    18  N   -0.046376
 Sum of Mulliken charges =  -2.00000

 Dipole moment (field-independent basis, Debye):
    X=             85.8708    Y=             16.9675    Z=             -9.8486  Tot=             88.0834
 Quadrupole moment (field-independent basis, Debye-Ang):
   XX=           -964.1594   YY=           -227.8256   ZZ=           -114.2028
   XY=           -150.4427   XZ=             89.0488   YZ=              7.8981

 Normal termination of Gaussian 16 at Fri Oct 11 15:53:56 2024.
