 Gaussian 16, Revision C.01,
 Gaussian 16:  ES64L-G16RevC.01  3-Jul-2019

 ----------------------------------------------------------------------
 # wb97xd def2svp scrf=(smd,solvent=acetonitrile) g09default scf=(xqc,m
 axcycle=64) force guess=read nosymm
 ----------------------------------------------------------------------

 ----------
 Title Card
 ----------
 Symbolic Z-matrix:
 Charge = -1 Multiplicity = 2

                          Input orientation:
 ---------------------------------------------------------------------
 Center     Atomic      Atomic             Coordinates (Angstroms)
 Number     Number       Type             X           Y           Z
 ---------------------------------------------------------------------
      1          6           0       -8.936281   -0.860535    1.113129
      2          6           0       -8.940625    0.508060    1.251261
      3          6           0       -8.192716   -2.139598    0.983574
      4          6           0       -7.025141   -2.822629    0.899216
      5          6           0       -9.694992   -2.150774    0.993073
      6          6           0      -10.863253   -2.818940    0.937999
      7          6           0      -10.215491    1.240548    1.341320
      8          7           0      -11.218691    1.764787    1.415990
      9          6           0       -7.671114    1.253678    1.325466
     10          7           0       -6.651549    1.731384    1.379854
     11          6           0       -5.724290   -2.099193    0.951091
     12          7           0       -4.780228   -1.490129    0.994056
     13          6           0       -7.000314   -4.261422    0.740210
     14          7           0       -7.043757   -5.435207    0.601526
     15          6           0      -10.896283   -4.274644    0.825400
     16          7           0      -10.792804   -5.443364    0.741687
     17          6           0      -12.147569   -2.103853    0.994149
     18          7           0      -13.114795   -1.468347    1.039804
 ---------------------------------------------------------------------

 SCF Done:  E(UwB97XD) =  -784.825884140     A.U. after   19 cycles

 Alpha  occ. eigenvalues --  -14.46533 -14.46470 -14.46087 -14.45458 -14.45326
 Alpha  occ. eigenvalues --  -14.45307 -10.39000 -10.38931 -10.38883 -10.38852
 Alpha  occ. eigenvalues --  -10.38773 -10.38756 -10.36824 -10.36774 -10.36438
 Alpha  occ. eigenvalues --  -10.35867 -10.35736 -10.35726  -1.03224  -1.02712
 Alpha  occ. eigenvalues --   -1.02122  -1.01919  -1.00906  -1.00518  -0.99941
 Alpha  occ. eigenvalues --   -0.91910  -0.91559  -0.87949  -0.71886  -0.71219
 Alpha  occ. eigenvalues --   -0.67986  -0.67567  -0.67063  -0.66756  -0.54078
 Alpha  occ. eigenvalues --   -0.50586  -0.50451  -0.48830  -0.48599  -0.47719
 Alpha  occ. eigenvalues --   -0.47570  -0.47470  -0.47024  -0.46505  -0.46325
 Alpha  occ. eigenvalues --   -0.45697  -0.45688  -0.45584  -0.44926  -0.44899
 Alpha  occ. eigenvalues --   -0.44704  -0.44194  -0.43744  -0.43080  -0.42583
 Alpha  occ. eigenvalues --   -0.36225  -0.36183  -0.26531
 Alpha virt. eigenvalues --    0.03858   0.04435   0.06593   0.07065   0.07819
 Alpha virt. eigenvalues --    0.08416   0.10127   0.10825   0.11620   0.11918
 Alpha virt. eigenvalues --    0.12105   0.14231   0.18300   0.18453   0.20069

  Beta  occ. eigenvalues --  -14.46338 -14.46301 -14.45937 -14.45307 -14.45182
  Beta  occ. eigenvalues --  -14.45178 -10.38972 -10.38897 -10.38858 -10.38609
  Beta  occ. eigenvalues --  -10.38441 -10.38435 -10.36918 -10.36858 -10.36514
  Beta  occ. eigenvalues --  -10.35945 -10.35804 -10.35801  -1.02912  -1.02458
  Beta  occ. eigenvalues --   -1.01833  -1.01655  -1.00591  -1.00227  -0.99560
  Beta  occ. eigenvalues --   -0.91220  -0.90798  -0.86930  -0.71702  -0.71026
  Beta  occ. eigenvalues --   -0.67759  -0.67324  -0.66802  -0.66537  -0.53037
  Beta  occ. eigenvalues --   -0.49352  -0.49254  -0.48635  -0.48402  -0.47409
  Beta  occ. eigenvalues --   -0.47270  -0.47178  -0.46740  -0.46356  -0.46169
  Beta  occ. eigenvalues --   -0.45572  -0.44934  -0.44790  -0.44750  -0.44061
  Beta  occ. eigenvalues --   -0.44038  -0.43920  -0.43631  -0.42949  -0.42447
  Beta  occ. eigenvalues --   -0.33876  -0.33546
  Beta virt. eigenvalues --   -0.08921   0.04984   0.05595   0.06691   0.07153
  Beta virt. eigenvalues --    0.07889   0.08420   0.10998   0.11648   0.11969
  Beta virt. eigenvalues --    0.12160   0.12423   0.14515   0.18585   0.18752

 Mulliken charges and spin densities:
               1          2
     1  C    0.184217  -0.035757
     2  C   -0.385584   0.325638
     3  C    0.199072  -0.028567
     4  C   -0.392107   0.304084
     5  C    0.207279  -0.027268
     6  C   -0.389837   0.286443
     7  C   -0.090097  -0.060150
     8  N    0.023164   0.087727
     9  C   -0.088510  -0.058795
    10  N    0.030620   0.084632
    11  C   -0.092500  -0.052428
    12  N    0.034682   0.073615
    13  C   -0.066734  -0.073481
    14  N   -0.019665   0.113391
    15  C   -0.063463  -0.065502
    16  N   -0.016603   0.098530
    17  C   -0.075125  -0.058955
    18  N    0.001193   0.086844
 Sum of Mulliken charges =  -1.00000   1.00000

 Dipole moment (field-independent basis, Debye):
    X=             42.9493    Y=              8.6222    Z=             -4.9134  Tot=             44.0809
 Quadrupole moment (field-independent basis, Debye-Ang):
   XX=           -553.8163   YY=           -185.1418   ZZ=           -104.6721
   XY=            -76.3236   XZ=             44.6795   YZ=              1.7236

 Normal termination of Gaussian 16 at Fri Oct 11 15:53:33 2024.
