 Gaussian 16, Revision C.01,
 Gaussian 16:  ES64L-G16RevC.01  3-Jul-2019

 ----------------------------------------------------------------------
 # wb97xd def2svp scrf=(smd,solvent=acetonitrile) g09default scf=(xqc,m
 axcycle=64) force guess=read nosymm
 ----------------------------------------------------------------------

 ----------
 Title Card
 ----------
 Symbolic Z-matrix:
 Charge = -2 Multiplicity = 1

                          Input orientation:
 ---------------------------------------------------------------------
 Center     Atomic      Atomic             Coordinates (Angstroms)
 Number     Number       Type             X           Y           Z
 ---------------------------------------------------------------------
      1          6           0       -8.936570   -0.869253    1.115294
      2          6           0       -8.937042    0.539420    1.254312
      3          6           0       -8.204368   -2.136698    0.983707
      4          6           0       -6.990403   -2.841784    0.898795
      5          6           0       -9.685981   -2.147142    0.993167
      6          6           0      -10.898863   -2.833843    0.936674
      7          6           0      -10.216458    1.266057    1.343651
      8          7           0      -11.239609    1.769756    1.417873
      9          6           0       -7.669877    1.277246    1.329360
     10          7           0       -6.633782    1.738170    1.380866
     11          6           0       -5.701269   -2.104969    0.949464
     12          7           0       -4.766482   -1.478561    0.993163
     13          6           0       -6.981624   -4.275436    0.735687
     14          7           0       -7.047761   -5.451950    0.596435
     15          6           0      -10.911623   -4.292294    0.825071
     16          7           0      -10.793609   -5.458803    0.743103
     17          6           0      -12.160344   -2.113588    0.993150
     18          7           0      -13.134229   -1.456505    1.039033
 ---------------------------------------------------------------------

 SCF Done:  E(RwB97XD) =  -784.995402063     A.U. after   13 cycles

 Alpha  occ. eigenvalues --  -14.43538 -14.43475 -14.43370 -14.42745 -14.42602
 Alpha  occ. eigenvalues --  -14.42590 -10.36250 -10.36200 -10.36149 -10.34560
 Alpha  occ. eigenvalues --  -10.34503 -10.34479 -10.34075 -10.34039 -10.33935
 Alpha  occ. eigenvalues --  -10.33800 -10.33616 -10.33584  -1.00363  -0.99988
 Alpha  occ. eigenvalues --   -0.99208  -0.99041  -0.97883  -0.97827  -0.97085
 Alpha  occ. eigenvalues --   -0.87487  -0.87022  -0.84119  -0.67951  -0.67448
 Alpha  occ. eigenvalues --   -0.64410  -0.64044  -0.63648  -0.62665  -0.50575
 Alpha  occ. eigenvalues --   -0.47354  -0.47258  -0.46301  -0.46170  -0.45469
 Alpha  occ. eigenvalues --   -0.45323  -0.45247  -0.44732  -0.44237  -0.44053
 Alpha  occ. eigenvalues --   -0.43242  -0.43211  -0.42982  -0.42423  -0.42312
 Alpha  occ. eigenvalues --   -0.42102  -0.41840  -0.41269  -0.40403  -0.40008
 Alpha  occ. eigenvalues --   -0.31999  -0.31858  -0.23027
 Alpha virt. eigenvalues --    0.06279   0.06834   0.08621   0.09123   0.09780
 Alpha virt. eigenvalues --    0.11037   0.12059   0.12980   0.13596   0.13894
 Alpha virt. eigenvalues --    0.14105   0.15893   0.20399   0.20500   0.23010

 Mulliken charges:
               1
     1  C    0.135884
     2  C   -0.481301
     3  C    0.138922
     4  C   -0.480624
     5  C    0.147188
     6  C   -0.471226
     7  C   -0.123607
     8  N   -0.038591
     9  C   -0.123060
    10  N   -0.029625
    11  C   -0.128876
    12  N   -0.015281
    13  C   -0.101591
    14  N   -0.086573
    15  C   -0.100650
    16  N   -0.070117
    17  C   -0.100303
    18  N   -0.070569
 Sum of Mulliken charges =  -2.00000

 Dipole moment (field-independent basis, Debye):
    X=             85.9849    Y=             17.0003    Z=             -9.8398  Tot=             88.2000
 Quadrupole moment (field-independent basis, Debye-Ang):
   XX=           -968.0585   YY=           -228.8126   ZZ=           -114.4795
   XY=           -150.8005   XZ=             89.1172   YZ=              7.8576

 Normal termination of Gaussian 16 at Fri Oct 11 15:54:52 2024.
