 Gaussian 16, Revision C.01,
 Gaussian 16:  ES64L-G16RevC.01  3-Jul-2019

 ----------------------------------------------------------------------
 # wb97xd def2svp scrf=(smd,solvent=acetonitrile) g09default scf=(xqc,m
 axcycle=64) force guess=read nosymm
 ----------------------------------------------------------------------

 ----------
 Title Card
 ----------
 Symbolic Z-matrix:
 Charge = -1 Multiplicity = 2

                          Input orientation:
 ---------------------------------------------------------------------
 Center     Atomic      Atomic             Coordinates (Angstroms)
 Number     Number       Type             X           Y           Z
 ---------------------------------------------------------------------
      1          6           0       -8.936570   -0.869253    1.115294
      2          6           0       -8.937042    0.539420    1.254312
      3          6           0       -8.204368   -2.136698    0.983707
      4          6           0       -6.990403   -2.841784    0.898795
      5          6           0       -9.685981   -2.147142    0.993167
      6          6           0      -10.898863   -2.833843    0.936674
      7          6           0      -10.216458    1.266057    1.343651
      8          7           0      -11.239609    1.769756    1.417873
      9          6           0       -7.669877    1.277246    1.329360
     10          7           0       -6.633782    1.738170    1.380866
     11          6           0       -5.701269   -2.104969    0.949464
     12          7           0       -4.766482   -1.478561    0.993163
     13          6           0       -6.981624   -4.275436    0.735687
     14          7           0       -7.047761   -5.451950    0.596435
     15          6           0      -10.911623   -4.292294    0.825071
     16          7           0      -10.793609   -5.458803    0.743103
     17          6           0      -12.160344   -2.113588    0.993150
     18          7           0      -13.134229   -1.456505    1.039033
 ---------------------------------------------------------------------

 SCF Done:  E(UwB97XD) =  -784.830684233     A.U. after   19 cycles

 Alpha  occ. eigenvalues --  -14.46618 -14.46469 -14.46451 -14.45701 -14.45554
 Alpha  occ. eigenvalues --  -14.45377 -10.39530 -10.39512 -10.39457 -10.39445
 Alpha  occ. eigenvalues --  -10.39276 -10.39162 -10.36924 -10.36829 -10.36789
 Alpha  occ. eigenvalues --  -10.36135 -10.35952 -10.35840  -1.03191  -1.02581
 Alpha  occ. eigenvalues --   -1.01984  -1.01671  -1.00807  -1.00366  -1.00125
 Alpha  occ. eigenvalues --   -0.91286  -0.90973  -0.88194  -0.71391  -0.70914
 Alpha  occ. eigenvalues --   -0.67859  -0.67544  -0.67197  -0.66275  -0.53853
 Alpha  occ. eigenvalues --   -0.50428  -0.50294  -0.49079  -0.48815  -0.47776
 Alpha  occ. eigenvalues --   -0.47614  -0.47548  -0.47064  -0.46717  -0.46562
 Alpha  occ. eigenvalues --   -0.45796  -0.45558  -0.45450  -0.44925  -0.44744
 Alpha  occ. eigenvalues --   -0.44552  -0.44222  -0.43685  -0.42910  -0.42550
 Alpha  occ. eigenvalues --   -0.35725  -0.35659  -0.27410
 Alpha virt. eigenvalues --    0.03572   0.04110   0.06330   0.06738   0.07467
 Alpha virt. eigenvalues --    0.08512   0.09735   0.10592   0.11235   0.11510
 Alpha virt. eigenvalues --    0.11729   0.13958   0.18385   0.18478   0.19896

  Beta  occ. eigenvalues --  -14.46407 -14.46298 -14.46274 -14.45542 -14.45397
  Beta  occ. eigenvalues --  -14.45241 -10.39565 -10.39549 -10.39491 -10.39062
  Beta  occ. eigenvalues --  -10.38903 -10.38818 -10.37027 -10.36916 -10.36877
  Beta  occ. eigenvalues --  -10.36218 -10.36033 -10.35914  -1.02870  -1.02309
  Beta  occ. eigenvalues --   -1.01673  -1.01395  -1.00473  -1.00074  -0.99766
  Beta  occ. eigenvalues --   -0.90536  -0.90155  -0.87158  -0.71252  -0.70766
  Beta  occ. eigenvalues --   -0.67638  -0.67305  -0.66924  -0.66091  -0.52919
  Beta  occ. eigenvalues --   -0.49167  -0.49061  -0.48915  -0.48645  -0.47440
  Beta  occ. eigenvalues --   -0.47291  -0.47234  -0.46758  -0.46532  -0.46372
  Beta  occ. eigenvalues --   -0.45445  -0.44864  -0.44711  -0.44615  -0.44092
  Beta  occ. eigenvalues --   -0.43998  -0.43786  -0.43570  -0.42780  -0.42412
  Beta  occ. eigenvalues --   -0.33040  -0.32795
  Beta virt. eigenvalues --   -0.09869   0.04485   0.05021   0.06425   0.06831
  Beta virt. eigenvalues --    0.07540   0.08508   0.10629   0.11458   0.11558
  Beta virt. eigenvalues --    0.11780   0.12050   0.14277   0.18699   0.18786

 Mulliken charges and spin densities:
               1          2
     1  C    0.165131  -0.052644
     2  C   -0.365528   0.333140
     3  C    0.169559  -0.043835
     4  C   -0.368499   0.320779
     5  C    0.180373  -0.038428
     6  C   -0.368986   0.295975
     7  C   -0.077180  -0.064604
     8  N    0.009732   0.092330
     9  C   -0.075578  -0.063878
    10  N    0.018123   0.091293
    11  C   -0.082437  -0.057014
    12  N    0.028444   0.078888
    13  C   -0.054084  -0.080740
    14  N   -0.029001   0.122971
    15  C   -0.055439  -0.067713
    16  N   -0.019508   0.099455
    17  C   -0.056106  -0.069229
    18  N   -0.019016   0.103254
 Sum of Mulliken charges =  -1.00000   1.00000

 Dipole moment (field-independent basis, Debye):
    X=             43.0634    Y=              8.6342    Z=             -4.9077  Tot=             44.1938
 Quadrupole moment (field-independent basis, Debye-Ang):
   XX=           -556.7097   YY=           -185.5789   ZZ=           -104.9875
   XY=            -76.6305   XZ=             44.7605   YZ=              1.7203

 Normal termination of Gaussian 16 at Fri Oct 11 15:54:29 2024.
