 Gaussian 16, Revision C.01,
 Gaussian 16:  ES64L-G16RevC.01  3-Jul-2019

 ----------------------------------------------------------------------
 # wb97xd def2svp scrf=(smd,solvent=acetonitrile) g09default scf=(xqc,m
 axcycle=64) force guess=read nosymm
 ----------------------------------------------------------------------

 ----------
 Title Card
 ----------
 Symbolic Z-matrix:
 Charge = -2 Multiplicity = 1

                          Input orientation:
 ---------------------------------------------------------------------
 Center     Atomic      Atomic             Coordinates (Angstroms)
 Number     Number       Type             X           Y           Z
 ---------------------------------------------------------------------
      1          6           0       -8.939319   -0.915717    1.107813
      2          6           0       -8.938441    0.464779    1.249509
      3          6           0       -8.242780   -2.116759    0.981519
      4          6           0       -7.040172   -2.804245    0.898722
      5          6           0       -9.637051   -2.117343    0.994404
      6          6           0      -10.840081   -2.806797    0.938025
      7          6           0      -10.181980    1.181924    1.336040
      8          7           0      -11.166810    1.724568    1.401774
      9          6           0       -7.693925    1.182164    1.318624
     10          7           0       -6.708579    1.725221    1.371653
     11          6           0       -5.794410   -2.087760    0.955245
     12          7           0       -4.829959   -1.507862    1.000684
     13          6           0       -7.035101   -4.234473    0.748292
     14          7           0       -7.053811   -5.354375    0.629220
     15          6           0      -10.845310   -4.239860    0.817426
     16          7           0      -10.826597   -5.362452    0.727595
     17          6           0      -12.085728   -2.090690    1.001974
     18          7           0      -13.049841   -1.510502    1.050285
 ---------------------------------------------------------------------

 SCF Done:  E(RwB97XD) =  -785.009475762     A.U. after   12 cycles

 Alpha  occ. eigenvalues --  -14.41956 -14.41954 -14.41953 -14.41950 -14.41948
 Alpha  occ. eigenvalues --  -14.41944 -10.34420 -10.34352 -10.34344 -10.32874
 Alpha  occ. eigenvalues --  -10.32873 -10.32873 -10.32871 -10.32867 -10.32866
 Alpha  occ. eigenvalues --  -10.32507 -10.32507 -10.32499  -1.02488  -1.00119
 Alpha  occ. eigenvalues --   -1.00119  -0.99689  -0.99342  -0.99340  -0.99268
 Alpha  occ. eigenvalues --   -0.87625  -0.87622  -0.85318  -0.68006  -0.67995
 Alpha  occ. eigenvalues --   -0.64231  -0.64220  -0.63909  -0.63473  -0.52092
 Alpha  occ. eigenvalues --   -0.47825  -0.47824  -0.46370  -0.46366  -0.45049
 Alpha  occ. eigenvalues --   -0.44924  -0.44924  -0.44393  -0.44314  -0.44307
 Alpha  occ. eigenvalues --   -0.44160  -0.43564  -0.43103  -0.43099  -0.42924
 Alpha  occ. eigenvalues --   -0.42589  -0.42579  -0.41489  -0.40759  -0.40759
 Alpha  occ. eigenvalues --   -0.31620  -0.31617  -0.23075
 Alpha virt. eigenvalues --    0.08360   0.08363   0.10163   0.10669   0.10677
 Alpha virt. eigenvalues --    0.14006   0.14202   0.14209   0.14677   0.16189
 Alpha virt. eigenvalues --    0.16197   0.16361   0.21071   0.21085   0.25076

 Mulliken charges:
               1
     1  C    0.155566
     2  C   -0.505261
     3  C    0.155821
     4  C   -0.505836
     5  C    0.155506
     6  C   -0.505863
     7  C   -0.157992
     8  N   -0.000298
     9  C   -0.158052
    10  N   -0.000294
    11  C   -0.157940
    12  N   -0.000234
    13  C   -0.158028
    14  N   -0.000485
    15  C   -0.158055
    16  N   -0.000502
    17  C   -0.157873
    18  N   -0.000179
 Sum of Mulliken charges =  -2.00000

 Dipole moment (field-independent basis, Debye):
    X=             85.8732    Y=             16.4633    Z=             -9.8992  Tot=             87.9957
 Quadrupole moment (field-independent basis, Debye-Ang):
   XX=           -964.8327   YY=           -224.4499   ZZ=           -113.0758
   XY=           -147.2458   XZ=             89.2979   YZ=              7.6253

 Normal termination of Gaussian 16 at Fri Oct 11 15:29:43 2024.
