 Gaussian 16, Revision C.01,
 Gaussian 16:  ES64L-G16RevC.01  3-Jul-2019

 ----------------------------------------------------------------------
 # wb97xd def2svp scrf=(smd,solvent=acetonitrile) g09default scf=(xqc,m
 axcycle=64) force guess=read nosymm
 ----------------------------------------------------------------------

 ----------
 Title Card
 ----------
 Symbolic Z-matrix:
 Charge = -1 Multiplicity = 2

                          Input orientation:
 ---------------------------------------------------------------------
 Center     Atomic      Atomic             Coordinates (Angstroms)
 Number     Number       Type             X           Y           Z
 ---------------------------------------------------------------------
      1          6           0       -8.939319   -0.915717    1.107813
      2          6           0       -8.938441    0.464779    1.249509
      3          6           0       -8.242780   -2.116759    0.981519
      4          6           0       -7.040172   -2.804245    0.898722
      5          6           0       -9.637051   -2.117343    0.994404
      6          6           0      -10.840081   -2.806797    0.938025
      7          6           0      -10.181980    1.181924    1.336040
      8          7           0      -11.166810    1.724568    1.401774
      9          6           0       -7.693925    1.182164    1.318624
     10          7           0       -6.708579    1.725221    1.371653
     11          6           0       -5.794410   -2.087760    0.955245
     12          7           0       -4.829959   -1.507862    1.000684
     13          6           0       -7.035101   -4.234473    0.748292
     14          7           0       -7.053811   -5.354375    0.629220
     15          6           0      -10.845310   -4.239860    0.817426
     16          7           0      -10.826597   -5.362452    0.727595
     17          6           0      -12.085728   -2.090690    1.001974
     18          7           0      -13.049841   -1.510502    1.050285
 ---------------------------------------------------------------------

 SCF Done:  E(UwB97XD) =  -784.844002992     A.U. after   15 cycles

 Alpha  occ. eigenvalues --  -14.45011 -14.45010 -14.45009 -14.45006 -14.45005
 Alpha  occ. eigenvalues --  -14.45002 -10.37991 -10.37988 -10.37980 -10.37839
 Alpha  occ. eigenvalues --  -10.37771 -10.37764 -10.35275 -10.35274 -10.35273
 Alpha  occ. eigenvalues --  -10.35273 -10.35273 -10.35270  -1.06256  -1.02867
 Alpha  occ. eigenvalues --   -1.02864  -1.02508  -1.01977  -1.01975  -1.01906
 Alpha  occ. eigenvalues --   -0.91653  -0.91647  -0.89494  -0.71594  -0.71583
 Alpha  occ. eigenvalues --   -0.67886  -0.67879  -0.67576  -0.67210  -0.55496
 Alpha  occ. eigenvalues --   -0.50991  -0.50987  -0.49364  -0.49356  -0.47379
 Alpha  occ. eigenvalues --   -0.47263  -0.47260  -0.46944  -0.46774  -0.46763
 Alpha  occ. eigenvalues --   -0.46759  -0.45904  -0.45649  -0.45649  -0.45485
 Alpha  occ. eigenvalues --   -0.45014  -0.45007  -0.43848  -0.43429  -0.43425
 Alpha  occ. eigenvalues --   -0.35521  -0.35514  -0.27576
 Alpha virt. eigenvalues --    0.05570   0.05574   0.07804   0.08264   0.08273
 Alpha virt. eigenvalues --    0.11362   0.11783   0.11786   0.12213   0.13759
 Alpha virt. eigenvalues --    0.13765   0.14527   0.19307   0.19319   0.21848

  Beta  occ. eigenvalues --  -14.44850 -14.44849 -14.44848 -14.44845 -14.44845
  Beta  occ. eigenvalues --  -14.44841 -10.37879 -10.37815 -10.37807 -10.37615
  Beta  occ. eigenvalues --  -10.37612 -10.37605 -10.35354 -10.35353 -10.35352
  Beta  occ. eigenvalues --  -10.35352 -10.35352 -10.35349  -1.05830  -1.02563
  Beta  occ. eigenvalues --   -1.02559  -1.02195  -1.01697  -1.01695  -1.01628
  Beta  occ. eigenvalues --   -0.90857  -0.90851  -0.88471  -0.71430  -0.71418
  Beta  occ. eigenvalues --   -0.67644  -0.67637  -0.67291  -0.67021  -0.54645
  Beta  occ. eigenvalues --   -0.49739  -0.49734  -0.49241  -0.49234  -0.47083
  Beta  occ. eigenvalues --   -0.46964  -0.46961  -0.46539  -0.46534  -0.46466
  Beta  occ. eigenvalues --   -0.45866  -0.45804  -0.44862  -0.44856  -0.44842
  Beta  occ. eigenvalues --   -0.44842  -0.44795  -0.43730  -0.43310  -0.43306
  Beta  occ. eigenvalues --   -0.32554  -0.32549
  Beta virt. eigenvalues --   -0.09967   0.06367   0.06370   0.07899   0.08345
  Beta virt. eigenvalues --    0.08355   0.11359   0.12721   0.12724   0.12913
  Beta virt. eigenvalues --    0.13805   0.13811   0.14795   0.19525   0.19537

 Mulliken charges and spin densities:
               1          2
     1  C    0.178662  -0.049832
     2  C   -0.390427   0.321171
     3  C    0.178211  -0.050037
     4  C   -0.390612   0.321415
     5  C    0.177841  -0.050014
     6  C   -0.390484   0.321475
     7  C   -0.107985  -0.062106
     8  N    0.047462   0.093080
     9  C   -0.107973  -0.062101
    10  N    0.047455   0.093066
    11  C   -0.107858  -0.062157
    12  N    0.047543   0.093083
    13  C   -0.108119  -0.062145
    14  N    0.047365   0.093160
    15  C   -0.108172  -0.062147
    16  N    0.047360   0.093150
    17  C   -0.107891  -0.062157
    18  N    0.047623   0.093093
 Sum of Mulliken charges =  -1.00000   1.00000

 Dipole moment (field-independent basis, Debye):
    X=             42.9354    Y=              8.2258    Z=             -4.9539  Tot=             43.9961
 Quadrupole moment (field-independent basis, Debye-Ang):
   XX=           -553.3413   YY=           -182.9506   ZZ=           -103.6023
   XY=            -73.5833   XZ=             44.8731   YZ=              1.4651

 Normal termination of Gaussian 16 at Fri Oct 11 15:29:22 2024.
