 Gaussian 16, Revision C.01,
 Gaussian 16:  ES64L-G16RevC.01  3-Jul-2019

 ----------------------------------------------------------------------
 # wb97xd def2svp scrf=(smd,solvent=acetonitrile) g09default scf=(xqc,m
 axcycle=64) force guess=read nosymm
 ----------------------------------------------------------------------

 ----------
 Title Card
 ----------
 Symbolic Z-matrix:
 Charge = -2 Multiplicity = 1

                          Input orientation:
 ---------------------------------------------------------------------
 Center     Atomic      Atomic             Coordinates (Angstroms)
 Number     Number       Type             X           Y           Z
 ---------------------------------------------------------------------
      1          6           0       -8.936076   -0.860965    1.113979
      2          6           0       -8.938520    0.508872    1.250793
      3          6           0       -8.199234   -2.137241    0.983469
      4          6           0       -7.017980   -2.824440    0.899699
      5          6           0       -9.690128   -2.149198    0.993045
      6          6           0      -10.872258   -2.817092    0.938140
      7          6           0      -10.213144    1.236466    1.340636
      8          7           0      -11.220983    1.768160    1.416655
      9          6           0       -7.677323    1.247528    1.325230
     10          7           0       -6.647863    1.734257    1.380319
     11          6           0       -5.731027   -2.098438    0.950511
     12          7           0       -4.775578   -1.489673    0.994094
     13          6           0       -7.001831   -4.270329    0.738829
     14          7           0       -7.044253   -5.426550    0.602201
     15          6           0      -10.890501   -4.283868    0.824856
     16          7           0      -10.794380   -5.436457    0.742548
     17          6           0      -12.137818   -2.106488    0.994124
     18          7           0      -13.120999   -1.464722    1.039676
 ---------------------------------------------------------------------

 SCF Done:  E(RwB97XD) =  -784.993390050     A.U. after   13 cycles

 Alpha  occ. eigenvalues --  -14.43410 -14.43263 -14.43070 -14.42716 -14.42666
 Alpha  occ. eigenvalues --  -14.42648 -10.35525 -10.35485 -10.35450 -10.34401
 Alpha  occ. eigenvalues --  -10.34221 -10.34102 -10.33719 -10.33695 -10.33646
 Alpha  occ. eigenvalues --  -10.33618 -10.33571 -10.33530  -1.00192  -0.99828
 Alpha  occ. eigenvalues --   -0.99324  -0.99069  -0.98444  -0.98082  -0.96878
 Alpha  occ. eigenvalues --   -0.87966  -0.87623  -0.84003  -0.68152  -0.67741
 Alpha  occ. eigenvalues --   -0.64421  -0.64228  -0.63747  -0.63084  -0.50705
 Alpha  occ. eigenvalues --   -0.47469  -0.47395  -0.46143  -0.46030  -0.45440
 Alpha  occ. eigenvalues --   -0.45303  -0.45241  -0.44732  -0.43956  -0.43789
 Alpha  occ. eigenvalues --   -0.43270  -0.42980  -0.42891  -0.42571  -0.42420
 Alpha  occ. eigenvalues --   -0.42256  -0.42092  -0.41149  -0.40343  -0.40192
 Alpha  occ. eigenvalues --   -0.32405  -0.32266  -0.22398
 Alpha virt. eigenvalues --    0.06725   0.07238   0.08996   0.09536   0.09816
 Alpha virt. eigenvalues --    0.11141   0.12422   0.13185   0.13581   0.14197
 Alpha virt. eigenvalues --    0.14466   0.16129   0.20394   0.20458   0.23202

 Mulliken charges:
               1
     1  C    0.148878
     2  C   -0.493883
     3  C    0.155129
     4  C   -0.496960
     5  C    0.162625
     6  C   -0.485979
     7  C   -0.132787
     8  N   -0.029658
     9  C   -0.130689
    10  N   -0.026312
    11  C   -0.136618
    12  N   -0.017533
    13  C   -0.122494
    14  N   -0.053084
    15  C   -0.117784
    16  N   -0.047097
    17  C   -0.109959
    18  N   -0.065792
 Sum of Mulliken charges =  -2.00000

 Dipole moment (field-independent basis, Debye):
    X=             85.8950    Y=             16.6380    Z=             -9.8794  Tot=             88.0475
 Quadrupole moment (field-independent basis, Debye-Ang):
   XX=           -966.0790   YY=           -225.9653   ZZ=           -114.2789
   XY=           -147.6244   XZ=             89.3291   YZ=              7.6841

 Normal termination of Gaussian 16 at Fri Oct 11 15:55:43 2024.
