 Gaussian 16, Revision C.01,
 Gaussian 16:  ES64L-G16RevC.01  3-Jul-2019

 ----------------------------------------------------------------------
 # wb97xd def2svp scrf=(smd,solvent=acetonitrile) g09default scf=(xqc,m
 axcycle=64) force guess=read nosymm
 ----------------------------------------------------------------------

 ----------
 Title Card
 ----------
 Symbolic Z-matrix:
 Charge = -1 Multiplicity = 2

                          Input orientation:
 ---------------------------------------------------------------------
 Center     Atomic      Atomic             Coordinates (Angstroms)
 Number     Number       Type             X           Y           Z
 ---------------------------------------------------------------------
      1          6           0       -8.936076   -0.860965    1.113979
      2          6           0       -8.938520    0.508872    1.250793
      3          6           0       -8.199234   -2.137241    0.983469
      4          6           0       -7.017980   -2.824440    0.899699
      5          6           0       -9.690128   -2.149198    0.993045
      6          6           0      -10.872258   -2.817092    0.938140
      7          6           0      -10.213144    1.236466    1.340636
      8          7           0      -11.220983    1.768160    1.416655
      9          6           0       -7.677323    1.247528    1.325230
     10          7           0       -6.647863    1.734257    1.380319
     11          6           0       -5.731027   -2.098438    0.950511
     12          7           0       -4.775578   -1.489673    0.994094
     13          6           0       -7.001831   -4.270329    0.738829
     14          7           0       -7.044253   -5.426550    0.602201
     15          6           0      -10.890501   -4.283868    0.824856
     16          7           0      -10.794380   -5.436457    0.742548
     17          6           0      -12.137818   -2.106488    0.994124
     18          7           0      -13.120999   -1.464722    1.039676
 ---------------------------------------------------------------------

 SCF Done:  E(UwB97XD) =  -784.835377747     A.U. after   17 cycles

 Alpha  occ. eigenvalues --  -14.46413 -14.46169 -14.46116 -14.45649 -14.45624
 Alpha  occ. eigenvalues --  -14.45502 -10.38986 -10.38960 -10.38928 -10.38915
 Alpha  occ. eigenvalues --  -10.38857 -10.38798 -10.36719 -10.36499 -10.36477
 Alpha  occ. eigenvalues --  -10.36048 -10.35986 -10.35913  -1.03133  -1.02430
 Alpha  occ. eigenvalues --   -1.02011  -1.01599  -1.01124  -1.00668  -1.00245
 Alpha  occ. eigenvalues --   -0.91791  -0.91569  -0.88132  -0.71677  -0.71300
 Alpha  occ. eigenvalues --   -0.67893  -0.67763  -0.67299  -0.66767  -0.54099
 Alpha  occ. eigenvalues --   -0.50554  -0.50448  -0.48890  -0.48640  -0.47715
 Alpha  occ. eigenvalues --   -0.47574  -0.47524  -0.47046  -0.46496  -0.46337
 Alpha  occ. eigenvalues --   -0.45598  -0.45555  -0.45372  -0.45115  -0.44766
 Alpha  occ. eigenvalues --   -0.44708  -0.44479  -0.43522  -0.42959  -0.42820
 Alpha  occ. eigenvalues --   -0.36081  -0.36067  -0.26744
 Alpha virt. eigenvalues --    0.03906   0.04390   0.06724   0.07184   0.07490
 Alpha virt. eigenvalues --    0.08538   0.10113   0.10831   0.11218   0.11819
 Alpha virt. eigenvalues --    0.12045   0.14237   0.18411   0.18484   0.20078

  Beta  occ. eigenvalues --  -14.46238 -14.45990 -14.45964 -14.45497 -14.45469
  Beta  occ. eigenvalues --  -14.45361 -10.39003 -10.38978 -10.38938 -10.38563
  Beta  occ. eigenvalues --  -10.38510 -10.38468 -10.36805 -10.36587 -10.36554
  Beta  occ. eigenvalues --  -10.36127 -10.36065 -10.35987  -1.02791  -1.02153
  Beta  occ. eigenvalues --   -1.01716  -1.01338  -1.00827  -1.00379  -0.99875
  Beta  occ. eigenvalues --   -0.91081  -0.90806  -0.87116  -0.71500  -0.71115
  Beta  occ. eigenvalues --   -0.67662  -0.67520  -0.67040  -0.66557  -0.53080
  Beta  occ. eigenvalues --   -0.49308  -0.49226  -0.48705  -0.48448  -0.47400
  Beta  occ. eigenvalues --   -0.47271  -0.47220  -0.46750  -0.46318  -0.46171
  Beta  occ. eigenvalues --   -0.45457  -0.44668  -0.44635  -0.44627  -0.44344
  Beta  occ. eigenvalues --   -0.44254  -0.43968  -0.43406  -0.42830  -0.42689
  Beta  occ. eigenvalues --   -0.33630  -0.33414
  Beta virt. eigenvalues --   -0.09165   0.04990   0.05475   0.06817   0.07275
  Beta virt. eigenvalues --    0.07571   0.08530   0.10986   0.11700   0.11867
  Beta virt. eigenvalues --    0.11992   0.12113   0.14521   0.18703   0.18768

 Mulliken charges and spin densities:
               1          2
     1  C    0.183177  -0.036974
     2  C   -0.383647   0.316812
     3  C    0.189101  -0.033790
     4  C   -0.387381   0.313626
     5  C    0.198964  -0.030089
     6  C   -0.385585   0.290726
     7  C   -0.085814  -0.060647
     8  N    0.017995   0.088773
     9  C   -0.082512  -0.061587
    10  N    0.021781   0.090401
    11  C   -0.089116  -0.057369
    12  N    0.027957   0.082271
    13  C   -0.074692  -0.068965
    14  N   -0.000366   0.104135
    15  C   -0.072108  -0.060109
    16  N    0.000757   0.088060
    17  C   -0.064698  -0.067216
    18  N   -0.013813   0.101942
 Sum of Mulliken charges =  -1.00000   1.00000

 Dipole moment (field-independent basis, Debye):
    X=             42.9836    Y=              8.3977    Z=             -4.9357  Tot=             44.0735
 Quadrupole moment (field-independent basis, Debye-Ang):
   XX=           -555.0832   YY=           -184.1479   ZZ=           -104.7499
   XY=            -74.4470   XZ=             44.8999   YZ=              1.5541

 Normal termination of Gaussian 16 at Fri Oct 11 15:55:21 2024.
