 Gaussian 16, Revision C.01,
 Gaussian 16:  ES64L-G16RevC.01  3-Jul-2019

 ----------------------------------------------------------------------
 # wb97xd def2svp scrf=(smd,solvent=acetonitrile) g09default scf=(xqc,m
 axcycle=64) force guess=read nosymm
 ----------------------------------------------------------------------

 ----------
 Title Card
 ----------
 Symbolic Z-matrix:
 Charge = -2 Multiplicity = 1

                          Input orientation:
 ---------------------------------------------------------------------
 Center     Atomic      Atomic             Coordinates (Angstroms)
 Number     Number       Type             X           Y           Z
 ---------------------------------------------------------------------
      1          6           0       -8.936451   -0.853221    1.112573
      2          6           0       -8.940355    0.477001    1.247228
      3          6           0       -8.193622   -2.139198    0.983686
      4          6           0       -7.045543   -2.806675    0.900514
      5          6           0       -9.692704   -2.149385    0.993031
      6          6           0      -10.847646   -2.803062    0.939408
      7          6           0      -10.213095    1.208290    1.337491
      8          7           0      -11.203519    1.768408    1.416105
      9          6           0       -7.681730    1.218655    1.321591
     10          7           0       -6.660370    1.731609    1.380084
     11          6           0       -5.759238   -2.089584    0.951468
     12          7           0       -4.782742   -1.501641    0.994609
     13          6           0       -7.022348   -4.263322    0.741844
     14          7           0       -7.040327   -5.406385    0.606458
     15          6           0      -10.868799   -4.273864    0.825012
     16          7           0      -10.794136   -5.418631    0.742639
     17          6           0      -12.119486   -2.095628    0.995394
     18          7           0      -13.107783   -1.473543    1.039671
 ---------------------------------------------------------------------

 SCF Done:  E(RwB97XD) =  -784.980444630     A.U. after   13 cycles

 Alpha  occ. eigenvalues --  -14.43250 -14.43036 -14.42898 -14.42754 -14.42738
 Alpha  occ. eigenvalues --  -14.42708 -10.34788 -10.34762 -10.34734 -10.34212
 Alpha  occ. eigenvalues --  -10.33958 -10.33863 -10.33701 -10.33678 -10.33659
 Alpha  occ. eigenvalues --  -10.33312 -10.33174 -10.33167  -1.00173  -0.99756
 Alpha  occ. eigenvalues --   -0.99505  -0.99009  -0.98833  -0.98307  -0.96598
 Alpha  occ. eigenvalues --   -0.88404  -0.88257  -0.83773  -0.68271  -0.68026
 Alpha  occ. eigenvalues --   -0.64514  -0.64375  -0.63774  -0.63443  -0.50862
 Alpha  occ. eigenvalues --   -0.47585  -0.47510  -0.46021  -0.45937  -0.45409
 Alpha  occ. eigenvalues --   -0.45298  -0.45258  -0.44741  -0.43684  -0.43581
 Alpha  occ. eigenvalues --   -0.43358  -0.42907  -0.42786  -0.42686  -0.42405
 Alpha  occ. eigenvalues --   -0.42370  -0.42178  -0.41158  -0.40302  -0.40068
 Alpha  occ. eigenvalues --   -0.32784  -0.32724  -0.21737
 Alpha virt. eigenvalues --    0.07195   0.07601   0.09228   0.09700   0.09884
 Alpha virt. eigenvalues --    0.11228   0.12748   0.13234   0.13611   0.14485
 Alpha virt. eigenvalues --    0.14817   0.16407   0.20352   0.20394   0.23336

 Mulliken charges:
               1
     1  C    0.166007
     2  C   -0.506160
     3  C    0.174686
     4  C   -0.511820
     5  C    0.177166
     6  C   -0.500159
     7  C   -0.142922
     8  N   -0.020519
     9  C   -0.139258
    10  N   -0.023051
    11  C   -0.145323
    12  N   -0.018667
    13  C   -0.138081
    14  N   -0.029442
    15  C   -0.132064
    16  N   -0.032407
    17  C   -0.123629
    18  N   -0.054357
 Sum of Mulliken charges =  -2.00000

 Dipole moment (field-independent basis, Debye):
    X=             85.8396    Y=             16.4687    Z=             -9.9004  Tot=             87.9641
 Quadrupole moment (field-independent basis, Debye-Ang):
   XX=           -964.5758   YY=           -224.2694   ZZ=           -114.0657
   XY=           -146.3006   XZ=             89.4134   YZ=              7.6308

 Normal termination of Gaussian 16 at Fri Oct 11 15:56:38 2024.
