 Gaussian 16, Revision C.01,
 Gaussian 16:  ES64L-G16RevC.01  3-Jul-2019

 ----------------------------------------------------------------------
 # wb97xd def2svp scrf=(smd,solvent=acetonitrile) g09default scf=(xqc,m
 axcycle=64) force guess=read nosymm
 ----------------------------------------------------------------------

 ----------
 Title Card
 ----------
 Symbolic Z-matrix:
 Charge = -1 Multiplicity = 2

                          Input orientation:
 ---------------------------------------------------------------------
 Center     Atomic      Atomic             Coordinates (Angstroms)
 Number     Number       Type             X           Y           Z
 ---------------------------------------------------------------------
      1          6           0       -8.936451   -0.853221    1.112573
      2          6           0       -8.940355    0.477001    1.247228
      3          6           0       -8.193622   -2.139198    0.983686
      4          6           0       -7.045543   -2.806675    0.900514
      5          6           0       -9.692704   -2.149385    0.993031
      6          6           0      -10.847646   -2.803062    0.939408
      7          6           0      -10.213095    1.208290    1.337491
      8          7           0      -11.203519    1.768408    1.416105
      9          6           0       -7.681730    1.218655    1.321591
     10          7           0       -6.660370    1.731609    1.380084
     11          6           0       -5.759238   -2.089584    0.951468
     12          7           0       -4.782742   -1.501641    0.994609
     13          6           0       -7.022348   -4.263322    0.741844
     14          7           0       -7.040327   -5.406385    0.606458
     15          6           0      -10.868799   -4.273864    0.825012
     16          7           0      -10.794136   -5.418631    0.742639
     17          6           0      -12.119486   -2.095628    0.995394
     18          7           0      -13.107783   -1.473543    1.039671
 ---------------------------------------------------------------------

 SCF Done:  E(UwB97XD) =  -784.829441335     A.U. after   16 cycles

 Alpha  occ. eigenvalues --  -14.46252 -14.45877 -14.45873 -14.45701 -14.45627
 Alpha  occ. eigenvalues --  -14.45603 -10.38483 -10.38480 -10.38473 -10.38380
 Alpha  occ. eigenvalues --  -10.38363 -10.38327 -10.36553 -10.36233 -10.36216
 Alpha  occ. eigenvalues --  -10.36040 -10.35994 -10.35977  -1.03161  -1.02380
 Alpha  occ. eigenvalues --   -1.02121  -1.01518  -1.01367  -1.00885  -1.00175
 Alpha  occ. eigenvalues --   -0.92264  -0.92182  -0.87973  -0.71876  -0.71656
 Alpha  occ. eigenvalues --   -0.68033  -0.67896  -0.67414  -0.67106  -0.54362
 Alpha  occ. eigenvalues --   -0.50668  -0.50579  -0.48702  -0.48524  -0.47660
 Alpha  occ. eigenvalues --   -0.47550  -0.47509  -0.47034  -0.46241  -0.46120
 Alpha  occ. eigenvalues --   -0.45621  -0.45448  -0.45328  -0.45199  -0.44853
 Alpha  occ. eigenvalues --   -0.44776  -0.44599  -0.43449  -0.43046  -0.42855
 Alpha  occ. eigenvalues --   -0.36488  -0.36454  -0.26049
 Alpha virt. eigenvalues --    0.04270   0.04664   0.06959   0.07378   0.07544
 Alpha virt. eigenvalues --    0.08550   0.10440   0.10915   0.11260   0.12076
 Alpha virt. eigenvalues --    0.12401   0.14547   0.18392   0.18443   0.20211

  Beta  occ. eigenvalues --  -14.46084 -14.45734 -14.45717 -14.45548 -14.45483
  Beta  occ. eigenvalues --  -14.45458 -10.38416 -10.38401 -10.38362 -10.38130
  Beta  occ. eigenvalues --  -10.38114 -10.38108 -10.36635 -10.36305 -10.36295
  Beta  occ. eigenvalues --  -10.36116 -10.36067 -10.36051  -1.02810  -1.02103
  Beta  occ. eigenvalues --   -1.01844  -1.01268  -1.01111  -1.00611  -0.99766
  Beta  occ. eigenvalues --   -0.91589  -0.91480  -0.86971  -0.71662  -0.71434
  Beta  occ. eigenvalues --   -0.67794  -0.67659  -0.67180  -0.66860  -0.53270
  Beta  occ. eigenvalues --   -0.49447  -0.49370  -0.48498  -0.48316  -0.47366
  Beta  occ. eigenvalues --   -0.47259  -0.47222  -0.46749  -0.46077  -0.45970
  Beta  occ. eigenvalues --   -0.45532  -0.44643  -0.44629  -0.44541  -0.44460
  Beta  occ. eigenvalues --   -0.44362  -0.44097  -0.43338  -0.42915  -0.42718
  Beta  occ. eigenvalues --   -0.34169  -0.34077
  Beta virt. eigenvalues --   -0.08434   0.05514   0.05896   0.07055   0.07471
  Beta virt. eigenvalues --    0.07629   0.08541   0.11311   0.11802   0.11973
  Beta virt. eigenvalues --    0.12136   0.12465   0.14800   0.18666   0.18708

 Mulliken charges and spin densities:
               1          2
     1  C    0.204943  -0.023550
     2  C   -0.401440   0.301885
     3  C    0.212364  -0.023485
     4  C   -0.406509   0.302200
     5  C    0.216683  -0.020090
     6  C   -0.400794   0.287922
     7  C   -0.095548  -0.056436
     8  N    0.026221   0.084173
     9  C   -0.090472  -0.058892
    10  N    0.025112   0.088310
    11  C   -0.097187  -0.056489
    12  N    0.028000   0.083631
    13  C   -0.090066  -0.060472
    14  N    0.019682   0.090833
    15  C   -0.085329  -0.055950
    16  N    0.014420   0.082636
    17  C   -0.077077  -0.063309
    18  N   -0.003002   0.097083
 Sum of Mulliken charges =  -1.00000   1.00000

 Dipole moment (field-independent basis, Debye):
    X=             42.9068    Y=              8.2738    Z=             -4.9525  Tot=             43.9770
 Quadrupole moment (field-independent basis, Debye-Ang):
   XX=           -553.4986   YY=           -183.3739   ZZ=           -104.5099
   XY=            -73.2807   XZ=             44.9479   YZ=              1.4581

 Normal termination of Gaussian 16 at Fri Oct 11 15:56:13 2024.
