 Gaussian 16, Revision C.01,
 Gaussian 16:  ES64L-G16RevC.01  3-Jul-2019

 ----------------------------------------------------------------------
 # wb97xd def2svp scrf=(smd,solvent=acetonitrile) g09default scf=(xqc,m
 axcycle=64) force guess=read nosymm
 ----------------------------------------------------------------------

 ----------
 Title Card
 ----------
 Symbolic Z-matrix:
 Charge = -2 Multiplicity = 1

                          Input orientation:
 ---------------------------------------------------------------------
 Center     Atomic      Atomic             Coordinates (Angstroms)
 Number     Number       Type             X           Y           Z
 ---------------------------------------------------------------------
      1          6           0       -8.937267   -0.847664    1.111346
      2          6           0       -8.943642    0.449199    1.244060
      3          6           0       -8.191661   -2.140591    0.984051
      4          6           0       -7.068184   -2.792413    0.901155
      5          6           0       -9.694786   -2.149100    0.993081
      6          6           0      -10.826230   -2.791265    0.940559
      7          6           0      -10.212531    1.182451    1.334477
      8          7           0      -11.186665    1.769838    1.416122
      9          6           0       -7.684713    1.192726    1.318853
     10          7           0       -6.673188    1.728530    1.379954
     11          6           0       -5.785816   -2.081887    0.951928
     12          7           0       -4.787621   -1.512855    0.994728
     13          6           0       -7.041867   -4.256380    0.744127
     14          7           0       -7.035436   -5.387670    0.609570
     15          6           0      -10.846920   -4.264245    0.825728
     16          7           0      -10.794431   -5.401921    0.743609
     17          6           0      -12.104331   -2.084437    0.996401
     18          7           0      -13.094607   -1.482493    1.039056
 ---------------------------------------------------------------------

 SCF Done:  E(RwB97XD) =  -784.962293767     A.U. after   13 cycles

 Alpha  occ. eigenvalues --  -14.43061 -14.42839 -14.42822 -14.42806 -14.42710
 Alpha  occ. eigenvalues --  -14.42702 -10.34133 -10.34121 -10.34094 -10.33990
 Alpha  occ. eigenvalues --  -10.33764 -10.33719 -10.33712 -10.33613 -10.33611
 Alpha  occ. eigenvalues --  -10.32972 -10.32817 -10.32811  -1.00250  -0.99810
 Alpha  occ. eigenvalues --   -0.99696  -0.98980  -0.98853  -0.98606  -0.96477
 Alpha  occ. eigenvalues --   -0.88819  -0.88779  -0.83554  -0.68344  -0.68239
 Alpha  occ. eigenvalues --   -0.64703  -0.64476  -0.63843  -0.63661  -0.51042
 Alpha  occ. eigenvalues --   -0.47701  -0.47627  -0.45939  -0.45873  -0.45391
 Alpha  occ. eigenvalues --   -0.45282  -0.45261  -0.44742  -0.43543  -0.43488
 Alpha  occ. eigenvalues --   -0.43386  -0.42908  -0.42836  -0.42650  -0.42447
 Alpha  occ. eigenvalues --   -0.42362  -0.42216  -0.41211  -0.40184  -0.39879
 Alpha  occ. eigenvalues --   -0.33112  -0.33084  -0.21166
 Alpha virt. eigenvalues --    0.07639   0.07910   0.09239   0.09837   0.09983
 Alpha virt. eigenvalues --    0.11374   0.13057   0.13221   0.13687   0.14824
 Alpha virt. eigenvalues --    0.15137   0.16711   0.20356   0.20366   0.23494

 Mulliken charges:
               1
     1  C    0.181631
     2  C   -0.514959
     3  C    0.189887
     4  C   -0.522244
     5  C    0.190779
     6  C   -0.512789
     7  C   -0.152419
     8  N   -0.013614
     9  C   -0.149320
    10  N   -0.017537
    11  C   -0.152470
    12  N   -0.024007
    13  C   -0.151555
    14  N   -0.009496
    15  C   -0.145533
    16  N   -0.019067
    17  C   -0.137837
    18  N   -0.039450
 Sum of Mulliken charges =  -2.00000

 Dipole moment (field-independent basis, Debye):
    X=             85.6997    Y=             16.3625    Z=             -9.9137  Tot=             87.8092
 Quadrupole moment (field-independent basis, Debye-Ang):
   XX=           -961.6990   YY=           -223.0166   ZZ=           -113.8472
   XY=           -145.2201   XZ=             89.3683   YZ=              7.6050

 Normal termination of Gaussian 16 at Fri Oct 11 15:57:29 2024.
