 Gaussian 16, Revision C.01,
 Gaussian 16:  ES64L-G16RevC.01  3-Jul-2019

 ----------------------------------------------------------------------
 # wb97xd def2svp scrf=(smd,solvent=acetonitrile) g09default scf=(xqc,m
 axcycle=64) force guess=read nosymm
 ----------------------------------------------------------------------

 ----------
 Title Card
 ----------
 Symbolic Z-matrix:
 Charge = -1 Multiplicity = 2

                          Input orientation:
 ---------------------------------------------------------------------
 Center     Atomic      Atomic             Coordinates (Angstroms)
 Number     Number       Type             X           Y           Z
 ---------------------------------------------------------------------
      1          6           0       -8.937267   -0.847664    1.111346
      2          6           0       -8.943642    0.449199    1.244060
      3          6           0       -8.191661   -2.140591    0.984051
      4          6           0       -7.068184   -2.792413    0.901155
      5          6           0       -9.694786   -2.149100    0.993081
      6          6           0      -10.826230   -2.791265    0.940559
      7          6           0      -10.212531    1.182451    1.334477
      8          7           0      -11.186665    1.769838    1.416122
      9          6           0       -7.684713    1.192726    1.318853
     10          7           0       -6.673188    1.728530    1.379954
     11          6           0       -5.785816   -2.081887    0.951928
     12          7           0       -4.787621   -1.512855    0.994728
     13          6           0       -7.041867   -4.256380    0.744127
     14          7           0       -7.035436   -5.387670    0.609570
     15          6           0      -10.846920   -4.264245    0.825728
     16          7           0      -10.794431   -5.401921    0.743609
     17          6           0      -12.104331   -2.084437    0.996401
     18          7           0      -13.094607   -1.482493    1.039056
 ---------------------------------------------------------------------

 SCF Done:  E(UwB97XD) =  -784.817295649     A.U. after   15 cycles

 Alpha  occ. eigenvalues --  -14.46032 -14.45792 -14.45727 -14.45649 -14.45594
 Alpha  occ. eigenvalues --  -14.45588 -10.38151 -10.38090 -10.38052 -10.37854
 Alpha  occ. eigenvalues --  -10.37841 -10.37815 -10.36338 -10.36118 -10.36052
 Alpha  occ. eigenvalues --  -10.35999 -10.35941 -10.35928  -1.03264  -1.02423
 Alpha  occ. eigenvalues --   -1.02290  -1.01474  -1.01375  -1.01145  -1.00158
 Alpha  occ. eigenvalues --   -0.92718  -0.92678  -0.87828  -0.72004  -0.71920
 Alpha  occ. eigenvalues --   -0.68238  -0.68010  -0.67654  -0.67211  -0.54626
 Alpha  occ. eigenvalues --   -0.50787  -0.50709  -0.48581  -0.48431  -0.47619
 Alpha  occ. eigenvalues --   -0.47520  -0.47495  -0.47018  -0.46048  -0.45945
 Alpha  occ. eigenvalues --   -0.45713  -0.45441  -0.45281  -0.45178  -0.45011
 Alpha  occ. eigenvalues --   -0.44762  -0.44672  -0.43468  -0.43047  -0.42815
 Alpha  occ. eigenvalues --   -0.36808  -0.36795  -0.25456
 Alpha virt. eigenvalues --    0.04647   0.04909   0.06977   0.07490   0.07652
 Alpha virt. eigenvalues --    0.08639   0.10761   0.10912   0.11343   0.12389
 Alpha virt. eigenvalues --    0.12729   0.14879   0.18414   0.18436   0.20370

  Beta  occ. eigenvalues --  -14.45875 -14.45642 -14.45580 -14.45514 -14.45453
  Beta  occ. eigenvalues --  -14.45447 -10.37900 -10.37880 -10.37858 -10.37784
  Beta  occ. eigenvalues --  -10.37722 -10.37696 -10.36414 -10.36192 -10.36125
  Beta  occ. eigenvalues --  -10.36068 -10.36012 -10.35998  -1.02909  -1.02155
  Beta  occ. eigenvalues --   -1.02025  -1.01232  -1.01128  -1.00891  -0.99726
  Beta  occ. eigenvalues --   -0.92066  -0.92031  -0.86830  -0.71760  -0.71671
  Beta  occ. eigenvalues --   -0.68001  -0.67773  -0.67417  -0.66959  -0.53483
  Beta  occ. eigenvalues --   -0.49588  -0.49513  -0.48364  -0.48214  -0.47343
  Beta  occ. eigenvalues --   -0.47238  -0.47222  -0.46743  -0.45900  -0.45802
  Beta  occ. eigenvalues --   -0.45624  -0.44631  -0.44623  -0.44568  -0.44531
  Beta  occ. eigenvalues --   -0.44442  -0.44132  -0.43362  -0.42909  -0.42669
  Beta  occ. eigenvalues --   -0.34628  -0.34581
  Beta virt. eigenvalues --   -0.07810   0.05999   0.06250   0.07082   0.07582
  Beta virt. eigenvalues --    0.07739   0.08634   0.11638   0.11805   0.12021
  Beta virt. eigenvalues --    0.12453   0.12795   0.15107   0.18669   0.18683

 Mulliken charges and spin densities:
               1          2
     1  C    0.224308  -0.013804
     2  C   -0.415397   0.289475
     3  C    0.230770  -0.013652
     4  C   -0.420427   0.293498
     5  C    0.232314  -0.013045
     6  C   -0.414418   0.285103
     7  C   -0.104493  -0.053577
     8  N    0.032744   0.081600
     9  C   -0.099946  -0.055917
    10  N    0.030223   0.085117
    11  C   -0.103374  -0.056947
    12  N    0.024613   0.087196
    13  C   -0.102975  -0.054428
    14  N    0.037009   0.081609
    15  C   -0.098020  -0.052567
    16  N    0.026787   0.078383
    17  C   -0.090250  -0.058877
    18  N    0.010529   0.090835
 Sum of Mulliken charges =  -1.00000   1.00000

 Dipole moment (field-independent basis, Debye):
    X=             42.7981    Y=              8.1927    Z=             -4.9640  Tot=             43.8570
 Quadrupole moment (field-independent basis, Debye-Ang):
   XX=           -551.4169   YY=           -182.8206   ZZ=           -104.2725
   XY=            -72.3748   XZ=             44.9293   YZ=              1.3901

 Normal termination of Gaussian 16 at Fri Oct 11 15:57:06 2024.
