 Gaussian 16, Revision C.01,
 Gaussian 16:  ES64L-G16RevC.01  3-Jul-2019

 ----------------------------------------------------------------------
 # wb97xd def2svp scrf=(smd,solvent=acetonitrile) g09default scf=(xqc,m
 axcycle=64) force guess=read nosymm
 ----------------------------------------------------------------------

 ----------
 Title Card
 ----------
 Symbolic Z-matrix:
 Charge = -2 Multiplicity = 1

                          Input orientation:
 ---------------------------------------------------------------------
 Center     Atomic      Atomic             Coordinates (Angstroms)
 Number     Number       Type             X           Y           Z
 ---------------------------------------------------------------------
      1          6           0       -8.937083   -0.841028    1.111746
      2          6           0       -8.950730    0.437493    1.242977
      3          6           0       -8.188220   -2.144294    0.985505
      4          6           0       -7.071725   -2.787427    0.901322
      5          6           0       -9.702876   -2.152384    0.992637
      6          6           0      -10.817407   -2.787460    0.940777
      7          6           0      -10.219720    1.177635    1.332981
      8          7           0      -11.188059    1.775814    1.417927
      9          6           0       -7.674993    1.188097    1.319532
     10          7           0       -6.668352    1.734648    1.380947
     11          6           0       -5.797994   -2.074508    0.951768
     12          7           0       -4.771047   -1.514259    0.993977
     13          6           0       -7.046114   -4.267414    0.742155
     14          7           0       -7.035354   -5.384273    0.608053
     15          6           0      -10.839707   -4.272081    0.825265
     16          7           0      -10.792348   -5.403574    0.745652
     17          6           0      -12.114527   -2.071086    0.998068
     18          7           0      -13.093637   -1.484076    1.037517
 ---------------------------------------------------------------------

 SCF Done:  E(RwB97XD) =  -784.938758957     A.U. after   13 cycles

 Alpha  occ. eigenvalues --  -14.43114 -14.42937 -14.42866 -14.42774 -14.42758
 Alpha  occ. eigenvalues --  -14.42490 -10.34098 -10.33880 -10.33867 -10.33854
 Alpha  occ. eigenvalues --  -10.33834 -10.33775 -10.33681 -10.33648 -10.33392
 Alpha  occ. eigenvalues --  -10.33066 -10.32858 -10.32751  -1.00412  -1.00076
 Alpha  occ. eigenvalues --   -0.99875  -0.99230  -0.98983  -0.98253  -0.96148
 Alpha  occ. eigenvalues --   -0.88956  -0.88843  -0.83021  -0.68186  -0.68088
 Alpha  occ. eigenvalues --   -0.64595  -0.64332  -0.63686  -0.63449  -0.50960
 Alpha  occ. eigenvalues --   -0.47672  -0.47616  -0.45908  -0.45876  -0.45431
 Alpha  occ. eigenvalues --   -0.45332  -0.45270  -0.44772  -0.43757  -0.43468
 Alpha  occ. eigenvalues --   -0.43341  -0.43076  -0.42971  -0.42777  -0.42390
 Alpha  occ. eigenvalues --   -0.42221  -0.42210  -0.41278  -0.40155  -0.39580
 Alpha  occ. eigenvalues --   -0.33506  -0.33250  -0.20720
 Alpha virt. eigenvalues --    0.07920   0.07972   0.09049   0.09823   0.10157
 Alpha virt. eigenvalues --    0.11213   0.13082   0.13325   0.13772   0.14894
 Alpha virt. eigenvalues --    0.15212   0.16821   0.20137   0.20254   0.23364

 Mulliken charges:
               1
     1  C    0.190803
     2  C   -0.518768
     3  C    0.190825
     4  C   -0.522590
     5  C    0.199235
     6  C   -0.521800
     7  C   -0.153949
     8  N   -0.013496
     9  C   -0.151684
    10  N   -0.018399
    11  C   -0.147936
    12  N   -0.051481
    13  C   -0.156815
    14  N    0.007540
    15  C   -0.150387
    16  N   -0.013105
    17  C   -0.148197
    18  N   -0.019795
 Sum of Mulliken charges =  -2.00000

 Dipole moment (field-independent basis, Debye):
    X=             85.2517    Y=             16.2376    Z=             -9.9237  Tot=             87.3498
 Quadrupole moment (field-independent basis, Debye-Ang):
   XX=           -953.7456   YY=           -221.8755   ZZ=           -113.8736
   XY=           -143.3252   XZ=             89.0159   YZ=              7.5577

 Normal termination of Gaussian 16 at Fri Oct 11 15:58:23 2024.
