 Gaussian 16, Revision C.01,
 Gaussian 16:  ES64L-G16RevC.01  3-Jul-2019

 ----------------------------------------------------------------------
 # wb97xd def2svp scrf=(smd,solvent=acetonitrile) g09default scf=(xqc,m
 axcycle=64) force guess=read nosymm
 ----------------------------------------------------------------------

 ----------
 Title Card
 ----------
 Symbolic Z-matrix:
 Charge = -1 Multiplicity = 2

                          Input orientation:
 ---------------------------------------------------------------------
 Center     Atomic      Atomic             Coordinates (Angstroms)
 Number     Number       Type             X           Y           Z
 ---------------------------------------------------------------------
      1          6           0       -8.937083   -0.841028    1.111746
      2          6           0       -8.950730    0.437493    1.242977
      3          6           0       -8.188220   -2.144294    0.985505
      4          6           0       -7.071725   -2.787427    0.901322
      5          6           0       -9.702876   -2.152384    0.992637
      6          6           0      -10.817407   -2.787460    0.940777
      7          6           0      -10.219720    1.177635    1.332981
      8          7           0      -11.188059    1.775814    1.417927
      9          6           0       -7.674993    1.188097    1.319532
     10          7           0       -6.668352    1.734648    1.380947
     11          6           0       -5.797994   -2.074508    0.951768
     12          7           0       -4.771047   -1.514259    0.993977
     13          6           0       -7.046114   -4.267414    0.742155
     14          7           0       -7.035354   -5.384273    0.608053
     15          6           0      -10.839707   -4.272081    0.825265
     16          7           0      -10.792348   -5.403574    0.745652
     17          6           0      -12.114527   -2.071086    0.998068
     18          7           0      -13.093637   -1.484076    1.037517
 ---------------------------------------------------------------------

 SCF Done:  E(UwB97XD) =  -784.798566067     A.U. after   17 cycles

 Alpha  occ. eigenvalues --  -14.46211 -14.45782 -14.45685 -14.45642 -14.45523
 Alpha  occ. eigenvalues --  -14.45279 -10.38208 -10.38042 -10.38025 -10.37671
 Alpha  occ. eigenvalues --  -10.37646 -10.37631 -10.36528 -10.36170 -10.36062
 Alpha  occ. eigenvalues --  -10.35994 -10.35912 -10.35689  -1.03252  -1.02607
 Alpha  occ. eigenvalues --   -1.02444  -1.01636  -1.01437  -1.01003  -0.99877
 Alpha  occ. eigenvalues --   -0.92850  -0.92763  -0.87354  -0.71869  -0.71788
 Alpha  occ. eigenvalues --   -0.68122  -0.67887  -0.67526  -0.66942  -0.54580
 Alpha  occ. eigenvalues --   -0.50718  -0.50683  -0.48519  -0.48347  -0.47620
 Alpha  occ. eigenvalues --   -0.47506  -0.47496  -0.47010  -0.46022  -0.45860
 Alpha  occ. eigenvalues --   -0.45769  -0.45536  -0.45374  -0.45186  -0.44927
 Alpha  occ. eigenvalues --   -0.44759  -0.44683  -0.43584  -0.43137  -0.42590
 Alpha  occ. eigenvalues --   -0.37168  -0.36984  -0.25004
 Alpha virt. eigenvalues --    0.04906   0.04936   0.06752   0.07450   0.07890
 Alpha virt. eigenvalues --    0.08474   0.10781   0.11056   0.11486   0.12457
 Alpha virt. eigenvalues --    0.12812   0.14982   0.18150   0.18288   0.20272

  Beta  occ. eigenvalues --  -14.46041 -14.45645 -14.45551 -14.45503 -14.45398
  Beta  occ. eigenvalues --  -14.45154 -10.37901 -10.37753 -10.37740 -10.37631
  Beta  occ. eigenvalues --  -10.37619 -10.37614 -10.36609 -10.36238 -10.36130
  Beta  occ. eigenvalues --  -10.36063 -10.35977 -10.35754  -1.02930  -1.02366
  Beta  occ. eigenvalues --   -1.02191  -1.01418  -1.01207  -1.00707  -0.99436
  Beta  occ. eigenvalues --   -0.92225  -0.92130  -0.86348  -0.71600  -0.71519
  Beta  occ. eigenvalues --   -0.67887  -0.67648  -0.67279  -0.66694  -0.53400
  Beta  occ. eigenvalues --   -0.49545  -0.49507  -0.48292  -0.48134  -0.47357
  Beta  occ. eigenvalues --   -0.47241  -0.47235  -0.46749  -0.45920  -0.45733
  Beta  occ. eigenvalues --   -0.45647  -0.44787  -0.44701  -0.44619  -0.44570
  Beta  occ. eigenvalues --   -0.44548  -0.43928  -0.43478  -0.42988  -0.42439
  Beta  occ. eigenvalues --   -0.35122  -0.34833
  Beta virt. eigenvalues --   -0.07301   0.06314   0.06378   0.06867   0.07535
  Beta virt. eigenvalues --    0.07971   0.08478   0.11665   0.11905   0.12136
  Beta virt. eigenvalues --    0.12530   0.12878   0.15212   0.18415   0.18544

 Mulliken charges and spin densities:
               1          2
     1  C    0.236083  -0.007217
     2  C   -0.421085   0.284212
     3  C    0.235660  -0.000791
     4  C   -0.422176   0.290727
     5  C    0.241878  -0.013564
     6  C   -0.423479   0.283670
     7  C   -0.105990  -0.052316
     8  N    0.032891   0.080256
     9  C   -0.102456  -0.052451
    10  N    0.028086   0.078843
    11  C   -0.097833  -0.061875
    12  N    0.001736   0.098482
    13  C   -0.107383  -0.049062
    14  N    0.050961   0.071914
    15  C   -0.103227  -0.049498
    16  N    0.031254   0.072906
    17  C   -0.100950  -0.051791
    18  N    0.026030   0.077555
 Sum of Mulliken charges =  -1.00000   1.00000

 Dipole moment (field-independent basis, Debye):
    X=             42.5328    Y=              8.1170    Z=             -4.9703  Tot=             43.5848
 Quadrupole moment (field-independent basis, Debye-Ang):
   XX=           -546.8111   YY=           -182.3595   ZZ=           -104.2640
   XY=            -71.2240   XZ=             44.7258   YZ=              1.3344

 Normal termination of Gaussian 16 at Fri Oct 11 15:57:59 2024.
