 Gaussian 16, Revision C.01,
 Gaussian 16:  ES64L-G16RevC.01  3-Jul-2019

 ----------------------------------------------------------------------
 # wb97xd def2svp scrf=(smd,solvent=acetonitrile) g09default scf=(xqc,m
 axcycle=64) force guess=read nosymm
 ----------------------------------------------------------------------

 ----------
 Title Card
 ----------
 Symbolic Z-matrix:
 Charge = -2 Multiplicity = 1

                          Input orientation:
 ---------------------------------------------------------------------
 Center     Atomic      Atomic             Coordinates (Angstroms)
 Number     Number       Type             X           Y           Z
 ---------------------------------------------------------------------
      1          6           0       -8.936359   -0.857089    1.111401
      2          6           0       -8.949166    0.452284    1.244157
      3          6           0       -8.204287   -2.134102    0.982682
      4          6           0       -7.059512   -2.794252    0.901406
      5          6           0       -9.678884   -2.139245    0.994293
      6          6           0      -10.829222   -2.799147    0.939962
      7          6           0      -10.194393    1.188604    1.336288
      8          7           0      -11.185330    1.762119    1.414153
      9          6           0       -7.694473    1.199978    1.318290
     10          7           0       -6.677931    1.724447    1.379360
     11          6           0       -5.801058   -2.101821    0.951132
     12          7           0       -4.782048   -1.505802    0.995731
     13          6           0       -7.029271   -4.253633    0.744420
     14          7           0       -7.040318   -5.379659    0.612288
     15          6           0      -10.858445   -4.254785    0.826186
     16          7           0      -10.796091   -5.397177    0.742054
     17          6           0      -12.112001   -2.093490    0.995005
     18          7           0      -13.081106   -1.487408    1.039998
 ---------------------------------------------------------------------

 SCF Done:  E(RwB97XD) =  -784.984921529     A.U. after   13 cycles

 Alpha  occ. eigenvalues --  -14.43173 -14.42825 -14.42782 -14.42755 -14.42726
 Alpha  occ. eigenvalues --  -14.42583 -10.34404 -10.34386 -10.34322 -10.34147
 Alpha  occ. eigenvalues --  -10.33703 -10.33661 -10.33657 -10.33632 -10.33465
 Alpha  occ. eigenvalues --  -10.32976 -10.32842 -10.32741  -1.00375  -0.99825
 Alpha  occ. eigenvalues --   -0.99695  -0.98868  -0.98820  -0.98003  -0.97031
 Alpha  occ. eigenvalues --   -0.88748  -0.88483  -0.84314  -0.68576  -0.68436
 Alpha  occ. eigenvalues --   -0.64759  -0.64579  -0.64046  -0.63770  -0.51267
 Alpha  occ. eigenvalues --   -0.47746  -0.47615  -0.46038  -0.45951  -0.45340
 Alpha  occ. eigenvalues --   -0.45233  -0.45193  -0.44690  -0.43753  -0.43597
 Alpha  occ. eigenvalues --   -0.43402  -0.42972  -0.42811  -0.42706  -0.42244
 Alpha  occ. eigenvalues --   -0.42171  -0.42103  -0.41014  -0.40407  -0.39948
 Alpha  occ. eigenvalues --   -0.32826  -0.32602  -0.21783
 Alpha virt. eigenvalues --    0.07568   0.07614   0.09153   0.09777   0.09980
 Alpha virt. eigenvalues --    0.11703   0.12959   0.13250   0.13653   0.14776
 Alpha virt. eigenvalues --    0.15070   0.16502   0.20549   0.20579   0.23612

 Mulliken charges:
               1
     1  C    0.185898
     2  C   -0.512584
     3  C    0.183302
     4  C   -0.510608
     5  C    0.185294
     6  C   -0.509557
     7  C   -0.145948
     8  N   -0.020599
     9  C   -0.147525
    10  N   -0.017345
    11  C   -0.134342
    12  N   -0.066764
    13  C   -0.149513
    14  N   -0.002511
    15  C   -0.142066
    16  N   -0.028046
    17  C   -0.143590
    18  N   -0.023495
 Sum of Mulliken charges =  -2.00000

 Dipole moment (field-independent basis, Debye):
    X=             85.3966    Y=             16.4588    Z=             -9.9042  Tot=             87.5303
 Quadrupole moment (field-independent basis, Debye-Ang):
   XX=           -957.4036   YY=           -223.4153   ZZ=           -113.7698
   XY=           -145.8268   XZ=             88.9595   YZ=              7.6977

 Normal termination of Gaussian 16 at Fri Oct 11 15:59:16 2024.
