 Gaussian 16, Revision C.01,
 Gaussian 16:  ES64L-G16RevC.01  3-Jul-2019

 ----------------------------------------------------------------------
 # wb97xd def2svp scrf=(smd,solvent=acetonitrile) g09default scf=(xqc,m
 axcycle=64) force guess=read nosymm
 ----------------------------------------------------------------------

 ----------
 Title Card
 ----------
 Symbolic Z-matrix:
 Charge = -1 Multiplicity = 2

                          Input orientation:
 ---------------------------------------------------------------------
 Center     Atomic      Atomic             Coordinates (Angstroms)
 Number     Number       Type             X           Y           Z
 ---------------------------------------------------------------------
      1          6           0       -8.936359   -0.857089    1.111401
      2          6           0       -8.949166    0.452284    1.244157
      3          6           0       -8.204287   -2.134102    0.982682
      4          6           0       -7.059512   -2.794252    0.901406
      5          6           0       -9.678884   -2.139245    0.994293
      6          6           0      -10.829222   -2.799147    0.939962
      7          6           0      -10.194393    1.188604    1.336288
      8          7           0      -11.185330    1.762119    1.414153
      9          6           0       -7.694473    1.199978    1.318290
     10          7           0       -6.677931    1.724447    1.379360
     11          6           0       -5.801058   -2.101821    0.951132
     12          7           0       -4.782048   -1.505802    0.995731
     13          6           0       -7.029271   -4.253633    0.744420
     14          7           0       -7.040318   -5.379659    0.612288
     15          6           0      -10.858445   -4.254785    0.826186
     16          7           0      -10.796091   -5.397177    0.742054
     17          6           0      -12.112001   -2.093490    0.995005
     18          7           0      -13.081106   -1.487408    1.039998
 ---------------------------------------------------------------------

 SCF Done:  E(UwB97XD) =  -784.833246804     A.U. after   17 cycles

 Alpha  occ. eigenvalues --  -14.46393 -14.45732 -14.45719 -14.45704 -14.45653
 Alpha  occ. eigenvalues --  -14.45459 -10.38256 -10.38068 -10.38066 -10.37999
 Alpha  occ. eigenvalues --  -10.37966 -10.37955 -10.36608 -10.36004 -10.35999
 Alpha  occ. eigenvalues --  -10.35987 -10.35962 -10.35781  -1.03561  -1.02432
 Alpha  occ. eigenvalues --   -1.02340  -1.01386  -1.01332  -1.01067  -1.00209
 Alpha  occ. eigenvalues --   -0.92620  -0.92395  -0.88512  -0.72214  -0.72074
 Alpha  occ. eigenvalues --   -0.68306  -0.68141  -0.67810  -0.67320  -0.54800
 Alpha  occ. eigenvalues --   -0.50838  -0.50740  -0.48809  -0.48585  -0.47620
 Alpha  occ. eigenvalues --   -0.47508  -0.47488  -0.47012  -0.46309  -0.46155
 Alpha  occ. eigenvalues --   -0.45699  -0.45686  -0.45236  -0.45145  -0.44797
 Alpha  occ. eigenvalues --   -0.44694  -0.44569  -0.43369  -0.43152  -0.42661
 Alpha  occ. eigenvalues --   -0.36514  -0.36360  -0.26099
 Alpha virt. eigenvalues --    0.04630   0.04681   0.06782   0.07454   0.07655
 Alpha virt. eigenvalues --    0.09017   0.10563   0.10927   0.11285   0.12328
 Alpha virt. eigenvalues --    0.12684   0.14673   0.18662   0.18677   0.20458

  Beta  occ. eigenvalues --  -14.46198 -14.45576 -14.45564 -14.45558 -14.45503
  Beta  occ. eigenvalues --  -14.45320 -10.38038 -10.38017 -10.37995 -10.37895
  Beta  occ. eigenvalues --  -10.37704 -10.37699 -10.36700 -10.36080 -10.36072
  Beta  occ. eigenvalues --  -10.36063 -10.36037 -10.35852  -1.03175  -1.02161
  Beta  occ. eigenvalues --   -1.02058  -1.01130  -1.01078  -1.00717  -0.99847
  Beta  occ. eigenvalues --   -0.91950  -0.91706  -0.87521  -0.72000  -0.71859
  Beta  occ. eigenvalues --   -0.68072  -0.67903  -0.67589  -0.67064  -0.53724
  Beta  occ. eigenvalues --   -0.49628  -0.49511  -0.48599  -0.48384  -0.47317
  Beta  occ. eigenvalues --   -0.47208  -0.47194  -0.46720  -0.46141  -0.45992
  Beta  occ. eigenvalues --   -0.45593  -0.44666  -0.44545  -0.44513  -0.44472
  Beta  occ. eigenvalues --   -0.44433  -0.43932  -0.43253  -0.43020  -0.42518
  Beta  occ. eigenvalues --   -0.34210  -0.33936
  Beta virt. eigenvalues --   -0.08521   0.05836   0.05899   0.06890   0.07546
  Beta virt. eigenvalues --    0.07741   0.09009   0.11495   0.11826   0.11994
  Beta virt. eigenvalues --    0.12385   0.12739   0.14912   0.18909   0.18916

 Mulliken charges and spin densities:
               1          2
     1  C    0.223426  -0.026662
     2  C   -0.412584   0.289518
     3  C    0.220974  -0.017655
     4  C   -0.408047   0.295601
     5  C    0.220777  -0.026147
     6  C   -0.405886   0.298858
     7  C   -0.098845  -0.058478
     8  N    0.027634   0.089951
     9  C   -0.099221  -0.056428
    10  N    0.029429   0.084498
    11  C   -0.084689  -0.071319
    12  N   -0.010386   0.113308
    13  C   -0.100767  -0.054747
    14  N    0.042991   0.080918
    15  C   -0.093986  -0.059369
    16  N    0.020681   0.089429
    17  C   -0.095706  -0.058088
    18  N    0.024206   0.086809
 Sum of Mulliken charges =  -1.00000   1.00000

 Dipole moment (field-independent basis, Debye):
    X=             42.6117    Y=              8.2125    Z=             -4.9619  Tot=             43.6787
 Quadrupole moment (field-independent basis, Debye-Ang):
   XX=           -548.5103   YY=           -182.7678   ZZ=           -104.2549
   XY=            -72.3717   XZ=             44.7063   YZ=              1.4307

 Normal termination of Gaussian 16 at Fri Oct 11 15:58:53 2024.
