 Gaussian 16, Revision C.01,
 Gaussian 16:  ES64L-G16RevC.01  3-Jul-2019

 ----------------------------------------------------------------------
 # wb97xd def2svp scrf=(smd,solvent=acetonitrile) g09default scf=(xqc,m
 axcycle=64) force guess=read nosymm
 ----------------------------------------------------------------------

 ----------
 Title Card
 ----------
 Symbolic Z-matrix:
 Charge = -2 Multiplicity = 1

                          Input orientation:
 ---------------------------------------------------------------------
 Center     Atomic      Atomic             Coordinates (Angstroms)
 Number     Number       Type             X           Y           Z
 ---------------------------------------------------------------------
      1          6           0       -8.938490   -0.858400    1.113780
      2          6           0       -8.946438    0.484358    1.247941
      3          6           0       -8.197795   -2.142637    0.983307
      4          6           0       -7.041844   -2.805554    0.901288
      5          6           0       -9.681669   -2.141552    0.994047
      6          6           0      -10.856485   -2.812590    0.939028
      7          6           0      -10.203984    1.213599    1.337732
      8          7           0      -11.204306    1.770731    1.417820
      9          6           0       -7.685840    1.224436    1.323857
     10          7           0       -6.660296    1.730617    1.380747
     11          6           0       -5.773640   -2.107829    0.948868
     12          7           0       -4.763022   -1.490589    0.993738
     13          6           0       -7.017084   -4.272274    0.738291
     14          7           0       -7.037035   -5.399173    0.603678
     15          6           0      -10.869291   -4.275310    0.826992
     16          7           0      -10.796870   -5.416128    0.746217
     17          6           0      -12.132303   -2.093802    0.994220
     18          7           0      -13.103502   -1.478079    1.037254
 ---------------------------------------------------------------------

 SCF Done:  E(RwB97XD) =  -784.990025098     A.U. after   13 cycles

 Alpha  occ. eigenvalues --  -14.43469 -14.42870 -14.42792 -14.42788 -14.42785
 Alpha  occ. eigenvalues --  -14.42764 -10.35004 -10.34983 -10.34919 -10.34475
 Alpha  occ. eigenvalues --  -10.33852 -10.33751 -10.33736 -10.33733 -10.33668
 Alpha  occ. eigenvalues --  -10.33342 -10.33274 -10.33231  -1.00243  -0.99806
 Alpha  occ. eigenvalues --   -0.99605  -0.98856  -0.98752  -0.97954  -0.96863
 Alpha  occ. eigenvalues --   -0.88317  -0.88019  -0.84092  -0.68305  -0.68030
 Alpha  occ. eigenvalues --   -0.64576  -0.64359  -0.63791  -0.63483  -0.50932
 Alpha  occ. eigenvalues --   -0.47583  -0.47481  -0.46083  -0.45988  -0.45398
 Alpha  occ. eigenvalues --   -0.45276  -0.45246  -0.44727  -0.43825  -0.43651
 Alpha  occ. eigenvalues --   -0.43389  -0.42980  -0.42804  -0.42668  -0.42323
 Alpha  occ. eigenvalues --   -0.42208  -0.42138  -0.41079  -0.40390  -0.40056
 Alpha  occ. eigenvalues --   -0.32591  -0.32468  -0.22090
 Alpha virt. eigenvalues --    0.07193   0.07327   0.09008   0.09634   0.09864
 Alpha virt. eigenvalues --    0.11468   0.12777   0.13119   0.13512   0.14418
 Alpha virt. eigenvalues --    0.14767   0.16312   0.20389   0.20492   0.23361

 Mulliken charges:
               1
     1  C    0.163046
     2  C   -0.501490
     3  C    0.176763
     4  C   -0.502958
     5  C    0.164817
     6  C   -0.498518
     7  C   -0.136209
     8  N   -0.028994
     9  C   -0.137024
    10  N   -0.024197
    11  C   -0.119178
    12  N   -0.072815
    13  C   -0.140345
    14  N   -0.010066
    15  C   -0.134342
    16  N   -0.030917
    17  C   -0.132141
    18  N   -0.035434
 Sum of Mulliken charges =  -2.00000

 Dipole moment (field-independent basis, Debye):
    X=             85.6476    Y=             16.2686    Z=             -9.9198  Tot=             87.7416
 Quadrupole moment (field-independent basis, Debye-Ang):
   XX=           -962.4831   YY=           -223.2726   ZZ=           -114.1285
   XY=           -144.7280   XZ=             89.3783   YZ=              7.5005

 Normal termination of Gaussian 16 at Fri Oct 11 16:00:10 2024.
