 Gaussian 16, Revision C.01,
 Gaussian 16:  ES64L-G16RevC.01  3-Jul-2019

 ----------------------------------------------------------------------
 # wb97xd def2svp scrf=(smd,solvent=acetonitrile) g09default scf=(xqc,m
 axcycle=64) force guess=read nosymm
 ----------------------------------------------------------------------

 ----------
 Title Card
 ----------
 Symbolic Z-matrix:
 Charge = -1 Multiplicity = 2

                          Input orientation:
 ---------------------------------------------------------------------
 Center     Atomic      Atomic             Coordinates (Angstroms)
 Number     Number       Type             X           Y           Z
 ---------------------------------------------------------------------
      1          6           0       -8.938490   -0.858400    1.113780
      2          6           0       -8.946438    0.484358    1.247941
      3          6           0       -8.197795   -2.142637    0.983307
      4          6           0       -7.041844   -2.805554    0.901288
      5          6           0       -9.681669   -2.141552    0.994047
      6          6           0      -10.856485   -2.812590    0.939028
      7          6           0      -10.203984    1.213599    1.337732
      8          7           0      -11.204306    1.770731    1.417820
      9          6           0       -7.685840    1.224436    1.323857
     10          7           0       -6.660296    1.730617    1.380747
     11          6           0       -5.773640   -2.107829    0.948868
     12          7           0       -4.763022   -1.490589    0.993738
     13          6           0       -7.017084   -4.272274    0.738291
     14          7           0       -7.037035   -5.399173    0.603678
     15          6           0      -10.869291   -4.275310    0.826992
     16          7           0      -10.796870   -5.416128    0.746217
     17          6           0      -12.132303   -2.093802    0.994220
     18          7           0      -13.103502   -1.478079    1.037254
 ---------------------------------------------------------------------

 SCF Done:  E(UwB97XD) =  -784.835212765     A.U. after   17 cycles

 Alpha  occ. eigenvalues --  -14.46588 -14.45848 -14.45754 -14.45736 -14.45712
 Alpha  occ. eigenvalues --  -14.45551 -10.38670 -10.38562 -10.38526 -10.38501
 Alpha  occ. eigenvalues --  -10.38483 -10.38422 -10.36862 -10.36202 -10.36089
 Alpha  occ. eigenvalues --  -10.36074 -10.36052 -10.35917  -1.03273  -1.02377
 Alpha  occ. eigenvalues --   -1.02254  -1.01383  -1.01298  -1.00927  -1.00079
 Alpha  occ. eigenvalues --   -0.92175  -0.91937  -0.88252  -0.71891  -0.71622
 Alpha  occ. eigenvalues --   -0.68107  -0.67877  -0.67355  -0.67189  -0.54392
 Alpha  occ. eigenvalues --   -0.50658  -0.50569  -0.48794  -0.48645  -0.47666
 Alpha  occ. eigenvalues --   -0.47561  -0.47514  -0.47036  -0.46364  -0.46243
 Alpha  occ. eigenvalues --   -0.45646  -0.45627  -0.45246  -0.45136  -0.44773
 Alpha  occ. eigenvalues --   -0.44755  -0.44541  -0.43418  -0.43119  -0.42693
 Alpha  occ. eigenvalues --   -0.36291  -0.36226  -0.26418
 Alpha virt. eigenvalues --    0.04315   0.04432   0.06676   0.07317   0.07532
 Alpha virt. eigenvalues --    0.08822   0.10441   0.10781   0.11143   0.11988
 Alpha virt. eigenvalues --    0.12396   0.14446   0.18454   0.18534   0.20227

  Beta  occ. eigenvalues --  -14.46399 -14.45689 -14.45596 -14.45583 -14.45561
  Beta  occ. eigenvalues --  -14.45416 -10.38567 -10.38552 -10.38483 -10.38304
  Beta  occ. eigenvalues --  -10.38158 -10.38125 -10.36953 -10.36282 -10.36167
  Beta  occ. eigenvalues --  -10.36152 -10.36129 -10.35987  -1.02914  -1.02111
  Beta  occ. eigenvalues --   -1.01968  -1.01122  -1.01035  -1.00585  -0.99720
  Beta  occ. eigenvalues --   -0.91482  -0.91214  -0.87249  -0.71694  -0.71421
  Beta  occ. eigenvalues --   -0.67869  -0.67641  -0.67114  -0.66959  -0.53342
  Beta  occ. eigenvalues --   -0.49438  -0.49339  -0.48588  -0.48453  -0.47363
  Beta  occ. eigenvalues --   -0.47255  -0.47219  -0.46744  -0.46200  -0.46067
  Beta  occ. eigenvalues --   -0.45539  -0.44654  -0.44611  -0.44511  -0.44441
  Beta  occ. eigenvalues --   -0.44408  -0.43918  -0.43303  -0.42991  -0.42555
  Beta  occ. eigenvalues --   -0.33883  -0.33726
  Beta virt. eigenvalues --   -0.08838   0.05461   0.05594   0.06775   0.07409
  Beta virt. eigenvalues --    0.07618   0.08811   0.11328   0.11694   0.11864
  Beta virt. eigenvalues --    0.12045   0.12453   0.14709   0.18718   0.18806

 Mulliken charges and spin densities:
               1          2
     1  C    0.199858  -0.029344
     2  C   -0.396731   0.301974
     3  C    0.213133  -0.026763
     4  C   -0.400943   0.293158
     5  C    0.199685  -0.028687
     6  C   -0.391288   0.307909
     7  C   -0.089222  -0.060508
     8  N    0.019692   0.091575
     9  C   -0.088669  -0.059189
    10  N    0.023440   0.087847
    11  C   -0.071462  -0.071114
    12  N   -0.017978   0.109819
    13  C   -0.094116  -0.053843
    14  N    0.034228   0.078080
    15  C   -0.086507  -0.060284
    16  N    0.017519   0.089153
    17  C   -0.084431  -0.061809
    18  N    0.013791   0.092026
 Sum of Mulliken charges =  -1.00000   1.00000

 Dipole moment (field-independent basis, Debye):
    X=             42.7064    Y=              8.1492    Z=             -4.9618  Tot=             43.7592
 Quadrupole moment (field-independent basis, Debye-Ang):
   XX=           -550.5683   YY=           -182.7539   ZZ=           -104.5769
   XY=            -71.9948   XZ=             44.8365   YZ=              1.3674

 Normal termination of Gaussian 16 at Fri Oct 11 15:59:47 2024.
