 Gaussian 16, Revision C.01,
 Gaussian 16:  ES64L-G16RevC.01  3-Jul-2019

 ----------------------------------------------------------------------
 # wb97xd def2svp scrf=(smd,solvent=acetonitrile) g09default scf=(xqc,m
 axcycle=64) force guess=read nosymm
 ----------------------------------------------------------------------

 ----------
 Title Card
 ----------
 Symbolic Z-matrix:
 Charge = -2 Multiplicity = 1

                          Input orientation:
 ---------------------------------------------------------------------
 Center     Atomic      Atomic             Coordinates (Angstroms)
 Number     Number       Type             X           Y           Z
 ---------------------------------------------------------------------
      1          6           0       -8.937665   -0.873384    1.113340
      2          6           0       -8.944924    0.493805    1.248081
      3          6           0       -8.225201   -2.126673    0.982073
      4          6           0       -7.025369   -2.817582    0.900785
      5          6           0       -9.664419   -2.132979    0.995330
      6          6           0      -10.864293   -2.815846    0.939153
      7          6           0      -10.186072    1.212863    1.339131
      8          7           0      -11.191531    1.763086    1.416098
      9          6           0       -7.705037    1.223118    1.322658
     10          7           0       -6.674809    1.719127    1.379849
     11          6           0       -5.780891   -2.124949    0.947736
     12          7           0       -4.777894   -1.491795    0.994074
     13          6           0       -7.013813   -4.256564    0.740032
     14          7           0       -7.034854   -5.387518    0.606249
     15          6           0      -10.871491   -4.258518    0.829442
     16          7           0      -10.800820   -5.402918    0.746062
     17          6           0      -12.117708   -2.110893    0.991104
     18          7           0      -13.093102   -1.482557    1.037608
 ---------------------------------------------------------------------

 SCF Done:  E(RwB97XD) =  -785.015923576     A.U. after   13 cycles

 Alpha  occ. eigenvalues --  -14.43172 -14.42925 -14.42760 -14.42720 -14.42684
 Alpha  occ. eigenvalues --  -14.42522 -10.35383 -10.35330 -10.35259 -10.34203
 Alpha  occ. eigenvalues --  -10.33889 -10.33693 -10.33625 -10.33569 -10.33446
 Alpha  occ. eigenvalues --  -10.33211 -10.33124 -10.33019  -1.00685  -0.99669
 Alpha  occ. eigenvalues --   -0.99463  -0.98788  -0.98545  -0.98293  -0.97309
 Alpha  occ. eigenvalues --   -0.88161  -0.87917  -0.85111  -0.68505  -0.68239
 Alpha  occ. eigenvalues --   -0.64845  -0.64693  -0.64311  -0.63644  -0.51389
 Alpha  occ. eigenvalues --   -0.47744  -0.47530  -0.46407  -0.46129  -0.45283
 Alpha  occ. eigenvalues --   -0.45186  -0.45128  -0.44628  -0.44180  -0.43917
 Alpha  occ. eigenvalues --   -0.43329  -0.43182  -0.42739  -0.42454  -0.42223
 Alpha  occ. eigenvalues --   -0.42094  -0.42076  -0.40853  -0.40473  -0.39994
 Alpha  occ. eigenvalues --   -0.32073  -0.31766  -0.22979
 Alpha virt. eigenvalues --    0.07030   0.07205   0.09034   0.09419   0.09763
 Alpha virt. eigenvalues --    0.12152   0.12811   0.12989   0.13497   0.14459
 Alpha virt. eigenvalues --    0.14892   0.16277   0.20787   0.20906   0.23813

 Mulliken charges:
               1
     1  C    0.159919
     2  C   -0.494575
     3  C    0.153931
     4  C   -0.490125
     5  C    0.159842
     6  C   -0.489411
     7  C   -0.132750
     8  N   -0.028096
     9  C   -0.135898
    10  N   -0.021992
    11  C   -0.114578
    12  N   -0.079333
    13  C   -0.137691
    14  N   -0.016417
    15  C   -0.130940
    16  N   -0.032970
    17  C   -0.123448
    18  N   -0.045468
 Sum of Mulliken charges =  -2.00000

 Dipole moment (field-independent basis, Debye):
    X=             85.4212    Y=             16.5089    Z=             -9.8926  Tot=             87.5625
 Quadrupole moment (field-independent basis, Debye-Ang):
   XX=           -959.8688   YY=           -224.6256   ZZ=           -113.8817
   XY=           -146.1794   XZ=             88.9367   YZ=              7.6337

 Normal termination of Gaussian 16 at Fri Oct 11 16:01:05 2024.
