 Gaussian 16, Revision C.01,
 Gaussian 16:  ES64L-G16RevC.01  3-Jul-2019

 ----------------------------------------------------------------------
 # wb97xd def2svp scrf=(smd,solvent=acetonitrile) g09default scf=(xqc,m
 axcycle=64) force guess=read nosymm
 ----------------------------------------------------------------------

 ----------
 Title Card
 ----------
 Symbolic Z-matrix:
 Charge = -1 Multiplicity = 2

                          Input orientation:
 ---------------------------------------------------------------------
 Center     Atomic      Atomic             Coordinates (Angstroms)
 Number     Number       Type             X           Y           Z
 ---------------------------------------------------------------------
      1          6           0       -8.937665   -0.873384    1.113340
      2          6           0       -8.944924    0.493805    1.248081
      3          6           0       -8.225201   -2.126673    0.982073
      4          6           0       -7.025369   -2.817582    0.900785
      5          6           0       -9.664419   -2.132979    0.995330
      6          6           0      -10.864293   -2.815846    0.939153
      7          6           0      -10.186072    1.212863    1.339131
      8          7           0      -11.191531    1.763086    1.416098
      9          6           0       -7.705037    1.223118    1.322658
     10          7           0       -6.674809    1.719127    1.379849
     11          6           0       -5.780891   -2.124949    0.947736
     12          7           0       -4.777894   -1.491795    0.994074
     13          6           0       -7.013813   -4.256564    0.740032
     14          7           0       -7.034854   -5.387518    0.606249
     15          6           0      -10.871491   -4.258518    0.829442
     16          7           0      -10.800820   -5.402918    0.746062
     17          6           0      -12.117708   -2.110893    0.991104
     18          7           0      -13.093102   -1.482557    1.037608
 ---------------------------------------------------------------------

 SCF Done:  E(UwB97XD) =  -784.851302875     A.U. after   19 cycles

 Alpha  occ. eigenvalues --  -14.46512 -14.46009 -14.45753 -14.45704 -14.45636
 Alpha  occ. eigenvalues --  -14.45529 -10.38718 -10.38687 -10.38663 -10.38494
 Alpha  occ. eigenvalues --  -10.38426 -10.38337 -10.36701 -10.36259 -10.36026
 Alpha  occ. eigenvalues --  -10.35941 -10.35873 -10.35810  -1.04117  -1.02356
 Alpha  occ. eigenvalues --   -1.02178  -1.01470  -1.01332  -1.00975  -1.00219
 Alpha  occ. eigenvalues --   -0.92005  -0.91835  -0.89188  -0.72010  -0.71757
 Alpha  occ. eigenvalues --   -0.68396  -0.68251  -0.67858  -0.67306  -0.54741
 Alpha  occ. eigenvalues --   -0.50845  -0.50704  -0.49339  -0.48866  -0.47638
 Alpha  occ. eigenvalues --   -0.47557  -0.47481  -0.47015  -0.46729  -0.46508
 Alpha  occ. eigenvalues --   -0.46054  -0.45474  -0.45207  -0.44983  -0.44747
 Alpha  occ. eigenvalues --   -0.44683  -0.44449  -0.43236  -0.43068  -0.42615
 Alpha  occ. eigenvalues --   -0.35773  -0.35586  -0.27343
 Alpha virt. eigenvalues --    0.04285   0.04412   0.06582   0.07080   0.07437
 Alpha virt. eigenvalues --    0.09555   0.10322   0.10593   0.11104   0.12013
 Alpha virt. eigenvalues --    0.12526   0.14428   0.18949   0.19058   0.20628

  Beta  occ. eigenvalues --  -14.46293 -14.45828 -14.45588 -14.45537 -14.45474
  Beta  occ. eigenvalues --  -14.45369 -10.38751 -10.38721 -10.38689 -10.38142
  Beta  occ. eigenvalues --  -10.38065 -10.37992 -10.36805 -10.36347 -10.36109
  Beta  occ. eigenvalues --  -10.36023 -10.35953 -10.35890  -1.03726  -1.02052
  Beta  occ. eigenvalues --   -1.01868  -1.01148  -1.01048  -1.00672  -0.99850
  Beta  occ. eigenvalues --   -0.91266  -0.91068  -0.88190  -0.71858  -0.71607
  Beta  occ. eigenvalues --   -0.68162  -0.68019  -0.67593  -0.67126  -0.53822
  Beta  occ. eigenvalues --   -0.49603  -0.49425  -0.49174  -0.48708  -0.47296
  Beta  occ. eigenvalues --   -0.47209  -0.47164  -0.46693  -0.46495  -0.46298
  Beta  occ. eigenvalues --   -0.45381  -0.44985  -0.44537  -0.44426  -0.44314
  Beta  occ. eigenvalues --   -0.44188  -0.43847  -0.43107  -0.42942  -0.42466
  Beta  occ. eigenvalues --   -0.33134  -0.32728
  Beta virt. eigenvalues --   -0.09897   0.05175   0.05343   0.06691   0.07174
  Beta virt. eigenvalues --    0.07522   0.09547   0.11304   0.11516   0.11887
  Beta virt. eigenvalues --    0.12062   0.12579   0.14687   0.19182   0.19294

 Mulliken charges and spin densities:
               1          2
     1  C    0.189540  -0.047245
     2  C   -0.390259   0.299911
     3  C    0.183632  -0.037106
     4  C   -0.380677   0.312039
     5  C    0.188173  -0.043052
     6  C   -0.382257   0.306405
     7  C   -0.086745  -0.063636
     8  N    0.020774   0.096964
     9  C   -0.088514  -0.062424
    10  N    0.025918   0.093896
    11  C   -0.064410  -0.081736
    12  N   -0.020324   0.127648
    13  C   -0.089538  -0.062432
    14  N    0.031837   0.093010
    15  C   -0.083864  -0.064139
    16  N    0.016299   0.096008
    17  C   -0.076037  -0.069055
    18  N    0.006452   0.104942
 Sum of Mulliken charges =  -1.00000   1.00000

 Dipole moment (field-independent basis, Debye):
    X=             42.6807    Y=              8.2194    Z=             -4.9552  Tot=             43.7465
 Quadrupole moment (field-independent basis, Debye-Ang):
   XX=           -550.5799   YY=           -183.1221   ZZ=           -104.4376
   XY=            -72.5358   XZ=             44.7522   YZ=              1.4069

 Normal termination of Gaussian 16 at Fri Oct 11 16:00:43 2024.
