 Gaussian 16, Revision C.01,
 Gaussian 16:  ES64L-G16RevC.01  3-Jul-2019

 ----------------------------------------------------------------------
 # wb97xd def2svp scrf=(smd,solvent=acetonitrile) g09default scf=(xqc,m
 axcycle=64) force guess=read nosymm
 ----------------------------------------------------------------------

 ----------
 Title Card
 ----------
 Symbolic Z-matrix:
 Charge = -2 Multiplicity = 1

                          Input orientation:
 ---------------------------------------------------------------------
 Center     Atomic      Atomic             Coordinates (Angstroms)
 Number     Number       Type             X           Y           Z
 ---------------------------------------------------------------------
      1          6           0       -8.940185   -0.867819    1.111807
      2          6           0       -8.945367    0.468887    1.245086
      3          6           0       -8.217478   -2.133354    0.983130
      4          6           0       -7.049546   -2.804591    0.901332
      5          6           0       -9.664866   -2.131076    0.995231
      6          6           0      -10.854667   -2.809679    0.939728
      7          6           0      -10.198521    1.187372    1.335238
      8          7           0      -11.178807    1.769877    1.417523
      9          6           0       -7.693982    1.198760    1.320844
     10          7           0       -6.686576    1.719098    1.380084
     11          6           0       -5.795277   -2.101795    0.948925
     12          7           0       -4.782231   -1.509079    0.993501
     13          6           0       -7.035379   -4.243388    0.742911
     14          7           0       -7.031751   -5.385598    0.606449
     15          6           0      -10.847389   -4.250618    0.829694
     16          7           0      -10.796348   -5.396859    0.747523
     17          6           0      -12.102346   -2.094348    0.993269
     18          7           0      -13.089180   -1.485968    1.036530
 ---------------------------------------------------------------------

 SCF Done:  E(RwB97XD) =  -785.008157638     A.U. after   13 cycles

 Alpha  occ. eigenvalues --  -14.43158 -14.42801 -14.42792 -14.42700 -14.42642
 Alpha  occ. eigenvalues --  -14.42587 -10.34803 -10.34744 -10.34697 -10.34134
 Alpha  occ. eigenvalues --  -10.33779 -10.33715 -10.33601 -10.33588 -10.33461
 Alpha  occ. eigenvalues --  -10.32971 -10.32872 -10.32858  -1.00589  -0.99735
 Alpha  occ. eigenvalues --   -0.99287  -0.99106  -0.98352  -0.98152  -0.97666
 Alpha  occ. eigenvalues --   -0.88514  -0.88147  -0.84876  -0.68490  -0.68231
 Alpha  occ. eigenvalues --   -0.64884  -0.64829  -0.64317  -0.63679  -0.51401
 Alpha  occ. eigenvalues --   -0.47803  -0.47526  -0.46195  -0.46020  -0.45329
 Alpha  occ. eigenvalues --   -0.45224  -0.45126  -0.44650  -0.44000  -0.43655
 Alpha  occ. eigenvalues --   -0.43181  -0.43099  -0.42965  -0.42400  -0.42371
 Alpha  occ. eigenvalues --   -0.42257  -0.42212  -0.40896  -0.40233  -0.40181
 Alpha  occ. eigenvalues --   -0.32449  -0.32008  -0.22492
 Alpha virt. eigenvalues --    0.07455   0.07522   0.09022   0.09518   0.09935
 Alpha virt. eigenvalues --    0.12261   0.12707   0.13014   0.13659   0.14685
 Alpha virt. eigenvalues --    0.15147   0.16542   0.20711   0.20814   0.23871

 Mulliken charges:
               1
     1  C    0.168510
     2  C   -0.503337
     3  C    0.169704
     4  C   -0.498898
     5  C    0.155330
     6  C   -0.491906
     7  C   -0.144751
     8  N   -0.016094
     9  C   -0.148405
    10  N   -0.003172
    11  C   -0.129490
    12  N   -0.053558
    13  C   -0.140947
    14  N   -0.021524
    15  C   -0.139178
    16  N   -0.029487
    17  C   -0.132062
    18  N   -0.040735
 Sum of Mulliken charges =  -2.00000

 Dipole moment (field-independent basis, Debye):
    X=             85.8275    Y=             16.8264    Z=             -9.8690  Tot=             88.0164
 Quadrupole moment (field-independent basis, Debye-Ang):
   XX=           -966.1521   YY=           -225.5494   ZZ=           -113.7194
   XY=           -149.6224   XZ=             89.1371   YZ=              7.9207

 Normal termination of Gaussian 16 at Fri Oct 11 16:01:59 2024.
