 Gaussian 16, Revision C.01,
 Gaussian 16:  ES64L-G16RevC.01  3-Jul-2019

 ----------------------------------------------------------------------
 # wb97xd def2svp scrf=(smd,solvent=acetonitrile) g09default scf=(xqc,m
 axcycle=64) force guess=read nosymm
 ----------------------------------------------------------------------

 ----------
 Title Card
 ----------
 Symbolic Z-matrix:
 Charge = -1 Multiplicity = 2

                          Input orientation:
 ---------------------------------------------------------------------
 Center     Atomic      Atomic             Coordinates (Angstroms)
 Number     Number       Type             X           Y           Z
 ---------------------------------------------------------------------
      1          6           0       -8.940185   -0.867819    1.111807
      2          6           0       -8.945367    0.468887    1.245086
      3          6           0       -8.217478   -2.133354    0.983130
      4          6           0       -7.049546   -2.804591    0.901332
      5          6           0       -9.664866   -2.131076    0.995231
      6          6           0      -10.854667   -2.809679    0.939728
      7          6           0      -10.198521    1.187372    1.335238
      8          7           0      -11.178807    1.769877    1.417523
      9          6           0       -7.693982    1.198760    1.320844
     10          7           0       -6.686576    1.719098    1.380084
     11          6           0       -5.795277   -2.101795    0.948925
     12          7           0       -4.782231   -1.509079    0.993501
     13          6           0       -7.035379   -4.243388    0.742911
     14          7           0       -7.031751   -5.385598    0.606449
     15          6           0      -10.847389   -4.250618    0.829694
     16          7           0      -10.796348   -5.396859    0.747523
     17          6           0      -12.102346   -2.094348    0.993269
     18          7           0      -13.089180   -1.485968    1.036530
 ---------------------------------------------------------------------

 SCF Done:  E(UwB97XD) =  -784.848826414     A.U. after   19 cycles

 Alpha  occ. eigenvalues --  -14.46293 -14.45957 -14.45789 -14.45732 -14.45611
 Alpha  occ. eigenvalues --  -14.45450 -10.38321 -10.38269 -10.38240 -10.38226
 Alpha  occ. eigenvalues --  -10.38146 -10.38134 -10.36534 -10.36220 -10.36058
 Alpha  occ. eigenvalues --  -10.36013 -10.35880 -10.35732  -1.03947  -1.02460
 Alpha  occ. eigenvalues --   -1.02042  -1.01606  -1.01221  -1.00955  -1.00527
 Alpha  occ. eigenvalues --   -0.92354  -0.92091  -0.89010  -0.72054  -0.71817
 Alpha  occ. eigenvalues --   -0.68472  -0.68383  -0.67864  -0.67417  -0.54847
 Alpha  occ. eigenvalues --   -0.50883  -0.50721  -0.49093  -0.48722  -0.47639
 Alpha  occ. eigenvalues --   -0.47543  -0.47479  -0.47019  -0.46566  -0.46306
 Alpha  occ. eigenvalues --   -0.45865  -0.45485  -0.45382  -0.44993  -0.44764
 Alpha  occ. eigenvalues --   -0.44737  -0.44667  -0.43254  -0.42930  -0.42823
 Alpha  occ. eigenvalues --   -0.36131  -0.35825  -0.26841
 Alpha virt. eigenvalues --    0.04606   0.04656   0.06668   0.07098   0.07625
 Alpha virt. eigenvalues --    0.09612   0.10291   0.10559   0.11326   0.12226
 Alpha virt. eigenvalues --    0.12797   0.14703   0.18872   0.18953   0.20683

  Beta  occ. eigenvalues --  -14.46105 -14.45775 -14.45628 -14.45563 -14.45457
  Beta  occ. eigenvalues --  -14.45303 -10.38313 -10.38263 -10.38235 -10.37930
  Beta  occ. eigenvalues --  -10.37823 -10.37805 -10.36624 -10.36309 -10.36137
  Beta  occ. eigenvalues --  -10.36096 -10.35956 -10.35806  -1.03544  -1.02165
  Beta  occ. eigenvalues --   -1.01728  -1.01346  -1.00893  -1.00646  -1.00204
  Beta  occ. eigenvalues --   -0.91658  -0.91350  -0.88018  -0.71869  -0.71632
  Beta  occ. eigenvalues --   -0.68231  -0.68156  -0.67604  -0.67218  -0.53857
  Beta  occ. eigenvalues --   -0.49666  -0.49440  -0.48905  -0.48545  -0.47320
  Beta  occ. eigenvalues --   -0.47214  -0.47181  -0.46706  -0.46351  -0.46114
  Beta  occ. eigenvalues --   -0.45391  -0.44772  -0.44650  -0.44591  -0.44538
  Beta  occ. eigenvalues --   -0.44177  -0.43975  -0.43129  -0.42803  -0.42684
  Beta  occ. eigenvalues --   -0.33657  -0.33122
  Beta virt. eigenvalues --   -0.09333   0.05643   0.05687   0.06774   0.07200
  Beta virt. eigenvalues --    0.07709   0.09603   0.11234   0.11488   0.12085
  Beta virt. eigenvalues --    0.12277   0.12853   0.14942   0.19096   0.19187

 Mulliken charges and spin densities:
               1          2
     1  C    0.199569  -0.043107
     2  C   -0.400333   0.295237
     3  C    0.201856  -0.030690
     4  C   -0.394672   0.297412
     5  C    0.186780  -0.029080
     6  C   -0.382659   0.311172
     7  C   -0.098607  -0.058964
     8  N    0.030943   0.089275
     9  C   -0.100855  -0.057184
    10  N    0.042330   0.084952
    11  C   -0.080668  -0.070253
    12  N    0.000407   0.108648
    13  C   -0.093232  -0.061551
    14  N    0.027388   0.093322
    15  C   -0.089842  -0.064626
    16  N    0.021443   0.098297
    17  C   -0.082338  -0.068850
    18  N    0.012488   0.105990
 Sum of Mulliken charges =  -1.00000   1.00000

 Dipole moment (field-independent basis, Debye):
    X=             42.7789    Y=              8.3845    Z=             -4.9444  Tot=             43.8724
 Quadrupole moment (field-independent basis, Debye-Ang):
   XX=           -551.9704   YY=           -183.8096   ZZ=           -104.2802
   XY=            -73.9625   XZ=             44.7684   YZ=              1.5228

 Normal termination of Gaussian 16 at Fri Oct 11 16:01:37 2024.
