 Gaussian 16, Revision C.01,
 Gaussian 16:  ES64L-G16RevC.01  3-Jul-2019

 ----------------------------------------------------------------------
 # wb97xd def2svp scrf=(smd,solvent=acetonitrile) g09default scf=(xqc,m
 axcycle=64) force guess=read nosymm
 ----------------------------------------------------------------------

 ----------
 Title Card
 ----------
 Symbolic Z-matrix:
 Charge = -2 Multiplicity = 1

                          Input orientation:
 ---------------------------------------------------------------------
 Center     Atomic      Atomic             Coordinates (Angstroms)
 Number     Number       Type             X           Y           Z
 ---------------------------------------------------------------------
      1          6           0       -8.941164   -0.880811    1.111718
      2          6           0       -8.946299    0.479607    1.245697
      3          6           0       -8.228709   -2.128114    0.983073
      4          6           0       -7.041436   -2.809459    0.901473
      5          6           0       -9.656584   -2.124582    0.996086
      6          6           0      -10.862983   -2.813386    0.939890
      7          6           0      -10.190408    1.187283    1.335207
      8          7           0      -11.176207    1.773746    1.419134
      9          6           0       -7.704068    1.197841    1.321664
     10          7           0       -6.688135    1.716695    1.380771
     11          6           0       -5.795004   -2.109647    0.947392
     12          7           0       -4.784993   -1.509569    0.992297
     13          6           0       -7.033698   -4.239938    0.741598
     14          7           0       -7.027776   -5.382868    0.604194
     15          6           0      -10.846139   -4.245643    0.832178
     16          7           0      -10.797560   -5.394685    0.750372
     17          6           0      -12.100932   -2.099189    0.991436
     18          7           0      -13.087799   -1.487460    1.034624
 ---------------------------------------------------------------------

 SCF Done:  E(RwB97XD) =  -785.020938861     A.U. after   13 cycles

 Alpha  occ. eigenvalues --  -14.43122 -14.42782 -14.42752 -14.42723 -14.42646
 Alpha  occ. eigenvalues --  -14.42613 -10.35051 -10.34997 -10.34965 -10.34104
 Alpha  occ. eigenvalues --  -10.33772 -10.33672 -10.33625 -10.33611 -10.33498
 Alpha  occ. eigenvalues --  -10.32922 -10.32914 -10.32885  -1.00995  -0.99610
 Alpha  occ. eigenvalues --   -0.99224  -0.98781  -0.98522  -0.98170  -0.97787
 Alpha  occ. eigenvalues --   -0.88354  -0.88030  -0.85330  -0.68563  -0.68280
 Alpha  occ. eigenvalues --   -0.65039  -0.64898  -0.64600  -0.63667  -0.51634
 Alpha  occ. eigenvalues --   -0.47786  -0.47551  -0.46401  -0.46169  -0.45282
 Alpha  occ. eigenvalues --   -0.45179  -0.45105  -0.44612  -0.44113  -0.43895
 Alpha  occ. eigenvalues --   -0.43339  -0.43043  -0.42744  -0.42338  -0.42229
 Alpha  occ. eigenvalues --   -0.42194  -0.42164  -0.40799  -0.40234  -0.40182
 Alpha  occ. eigenvalues --   -0.32057  -0.31715  -0.23003
 Alpha virt. eigenvalues --    0.07315   0.07438   0.08970   0.09393   0.09726
 Alpha virt. eigenvalues --    0.12566   0.12687   0.12910   0.13452   0.14665
 Alpha virt. eigenvalues --    0.15036   0.16471   0.20866   0.20967   0.24015

 Mulliken charges:
               1
     1  C    0.158929
     2  C   -0.494664
     3  C    0.162481
     4  C   -0.492302
     5  C    0.148404
     6  C   -0.485668
     7  C   -0.138067
     8  N   -0.024136
     9  C   -0.143731
    10  N   -0.010859
    11  C   -0.125557
    12  N   -0.054880
    13  C   -0.138029
    14  N   -0.023937
    15  C   -0.135528
    16  N   -0.032223
    17  C   -0.128619
    18  N   -0.041612
 Sum of Mulliken charges =  -2.00000

 Dipole moment (field-independent basis, Debye):
    X=             85.8057    Y=             16.6871    Z=             -9.8836  Tot=             87.9702
 Quadrupole moment (field-independent basis, Debye-Ang):
   XX=           -966.3656   YY=           -226.0161   ZZ=           -113.7287
   XY=           -148.3024   XZ=             89.2658   YZ=              7.6975

 Normal termination of Gaussian 16 at Fri Oct 11 16:02:51 2024.
