 Gaussian 16, Revision C.01,
 Gaussian 16:  ES64L-G16RevC.01  3-Jul-2019

 ----------------------------------------------------------------------
 # wb97xd def2svp scrf=(smd,solvent=acetonitrile) g09default scf=(xqc,m
 axcycle=64) force guess=read nosymm
 ----------------------------------------------------------------------

 ----------
 Title Card
 ----------
 Symbolic Z-matrix:
 Charge = -1 Multiplicity = 2

                          Input orientation:
 ---------------------------------------------------------------------
 Center     Atomic      Atomic             Coordinates (Angstroms)
 Number     Number       Type             X           Y           Z
 ---------------------------------------------------------------------
      1          6           0       -8.941164   -0.880811    1.111718
      2          6           0       -8.946299    0.479607    1.245697
      3          6           0       -8.228709   -2.128114    0.983073
      4          6           0       -7.041436   -2.809459    0.901473
      5          6           0       -9.656584   -2.124582    0.996086
      6          6           0      -10.862983   -2.813386    0.939890
      7          6           0      -10.190408    1.187283    1.335207
      8          7           0      -11.176207    1.773746    1.419134
      9          6           0       -7.704068    1.197841    1.321664
     10          7           0       -6.688135    1.716695    1.380771
     11          6           0       -5.795004   -2.109647    0.947392
     12          7           0       -4.784993   -1.509569    0.992297
     13          6           0       -7.033698   -4.239938    0.741598
     14          7           0       -7.027776   -5.382868    0.604194
     15          6           0      -10.846139   -4.245643    0.832178
     16          7           0      -10.797560   -5.394685    0.750372
     17          6           0      -12.100932   -2.099189    0.991436
     18          7           0      -13.087799   -1.487460    1.034624
 ---------------------------------------------------------------------

 SCF Done:  E(UwB97XD) =  -784.855978520     A.U. after   15 cycles

 Alpha  occ. eigenvalues --  -14.46295 -14.45987 -14.45777 -14.45773 -14.45717
 Alpha  occ. eigenvalues --  -14.45558 -10.38438 -10.38385 -10.38366 -10.38320
 Alpha  occ. eigenvalues --  -10.38200 -10.38135 -10.36511 -10.36220 -10.36031
 Alpha  occ. eigenvalues --  -10.36019 -10.35945 -10.35799  -1.04570  -1.02329
 Alpha  occ. eigenvalues --   -1.02014  -1.01454  -1.01310  -1.00907  -1.00531
 Alpha  occ. eigenvalues --   -0.92189  -0.91964  -0.89415  -0.72080  -0.71810
 Alpha  occ. eigenvalues --   -0.68625  -0.68457  -0.68161  -0.67349  -0.55008
 Alpha  occ. eigenvalues --   -0.50901  -0.50758  -0.49352  -0.48966  -0.47639
 Alpha  occ. eigenvalues --   -0.47550  -0.47486  -0.47022  -0.46691  -0.46510
 Alpha  occ. eigenvalues --   -0.46107  -0.45359  -0.45216  -0.44959  -0.44745
 Alpha  occ. eigenvalues --   -0.44672  -0.44537  -0.43179  -0.42882  -0.42776
 Alpha  occ. eigenvalues --   -0.35759  -0.35543  -0.27368
 Alpha virt. eigenvalues --    0.04559   0.04629   0.06600   0.06959   0.07378
 Alpha virt. eigenvalues --    0.09955   0.10243   0.10434   0.11054   0.12214
 Alpha virt. eigenvalues --    0.12681   0.14623   0.19056   0.19149   0.20810

  Beta  occ. eigenvalues --  -14.46099 -14.45796 -14.45606 -14.45598 -14.45548
  Beta  occ. eigenvalues --  -14.45398 -10.38462 -10.38417 -10.38394 -10.37961
  Beta  occ. eigenvalues --  -10.37856 -10.37793 -10.36605 -10.36312 -10.36118
  Beta  occ. eigenvalues --  -10.36102 -10.36027 -10.35878  -1.04162  -1.02018
  Beta  occ. eigenvalues --   -1.01686  -1.01133  -1.01016  -1.00588  -1.00202
  Beta  occ. eigenvalues --   -0.91465  -0.91199  -0.88424  -0.71919  -0.71649
  Beta  occ. eigenvalues --   -0.68391  -0.68236  -0.67899  -0.67166  -0.54098
  Beta  occ. eigenvalues --   -0.49658  -0.49467  -0.49188  -0.48810  -0.47304
  Beta  occ. eigenvalues --   -0.47202  -0.47170  -0.46692  -0.46445  -0.46289
  Beta  occ. eigenvalues --   -0.45263  -0.44988  -0.44529  -0.44437  -0.44401
  Beta  occ. eigenvalues --   -0.44102  -0.43927  -0.43046  -0.42755  -0.42634
  Beta  occ. eigenvalues --   -0.33104  -0.32672
  Beta virt. eigenvalues --   -0.09940   0.05436   0.05536   0.06706   0.07061
  Beta virt. eigenvalues --    0.07465   0.09950   0.11210   0.11390   0.11845
  Beta virt. eigenvalues --    0.12263   0.12736   0.14868   0.19270   0.19371

 Mulliken charges and spin densities:
               1          2
     1  C    0.186846  -0.047793
     2  C   -0.390397   0.298195
     3  C    0.190459  -0.039924
     4  C   -0.386115   0.301526
     5  C    0.175655  -0.039062
     6  C   -0.374804   0.314242
     7  C   -0.091694  -0.063546
     8  N    0.024858   0.097427
     9  C   -0.095872  -0.061595
    10  N    0.036581   0.092829
    11  C   -0.076731  -0.073665
    12  N   -0.000247   0.113724
    13  C   -0.090619  -0.064133
    14  N    0.025579   0.097412
    15  C   -0.086470  -0.067732
    16  N    0.019569   0.103187
    17  C   -0.078928  -0.072029
    18  N    0.012332   0.110936
 Sum of Mulliken charges =  -1.00000   1.00000

 Dipole moment (field-independent basis, Debye):
    X=             42.7576    Y=              8.3001    Z=             -4.9526  Tot=             43.8365
 Quadrupole moment (field-independent basis, Debye-Ang):
   XX=           -551.8324   YY=           -184.0008   ZZ=           -104.3066
   XY=            -73.1425   XZ=             44.8365   YZ=              1.3935

 Normal termination of Gaussian 16 at Fri Oct 11 16:02:28 2024.
