 Gaussian 16, Revision C.01,
 Gaussian 16:  ES64L-G16RevC.01  3-Jul-2019

 ----------------------------------------------------------------------
 # wb97xd def2svp scrf=(smd,solvent=acetonitrile) g09default scf=(xqc,m
 axcycle=64) force guess=read nosymm
 ----------------------------------------------------------------------

 ----------
 Title Card
 ----------
 Symbolic Z-matrix:
 Charge = -2 Multiplicity = 1

                          Input orientation:
 ---------------------------------------------------------------------
 Center     Atomic      Atomic             Coordinates (Angstroms)
 Number     Number       Type             X           Y           Z
 ---------------------------------------------------------------------
      1          6           0       -8.942512   -0.909311    1.108829
      2          6           0       -8.946741    0.482885    1.245329
      3          6           0       -8.244231   -2.116396    0.981951
      4          6           0       -7.043588   -2.808780    0.901773
      5          6           0       -9.639742   -2.110318    0.997662
      6          6           0      -10.860881   -2.812454    0.940273
      7          6           0      -10.170249    1.177695    1.335614
      8          7           0      -11.166089    1.770991    1.417853
      9          6           0       -7.726229    1.185899    1.318992
     10          7           0       -6.697541    1.710325    1.380426
     11          6           0       -5.805010   -2.120116    0.947235
     12          7           0       -4.803931   -1.515674    0.992583
     13          6           0       -7.034830   -4.222583    0.744083
     14          7           0       -7.025956   -5.370671    0.607763
     15          6           0      -10.842751   -4.227106    0.834329
     16          7           0      -10.801051   -5.380093    0.749805
     17          6           0      -12.086762   -2.109344    0.989449
     18          7           0      -13.071801   -1.495126    1.034858
 ---------------------------------------------------------------------

 SCF Done:  E(RwB97XD) =  -785.031823284     A.U. after   13 cycles

 Alpha  occ. eigenvalues --  -14.42964 -14.42736 -14.42677 -14.42661 -14.42594
 Alpha  occ. eigenvalues --  -14.42585 -10.35147 -10.35082 -10.35068 -10.33898
 Alpha  occ. eigenvalues --  -10.33635 -10.33616 -10.33590 -10.33529 -10.33489
 Alpha  occ. eigenvalues --  -10.32810 -10.32710 -10.32576  -1.02811  -0.99221
 Alpha  occ. eigenvalues --   -0.99151  -0.98784  -0.98097  -0.98042  -0.97928
 Alpha  occ. eigenvalues --   -0.88331  -0.88088  -0.86096  -0.68876  -0.68627
 Alpha  occ. eigenvalues --   -0.65346  -0.65079  -0.64971  -0.64005  -0.52349
 Alpha  occ. eigenvalues --   -0.47808  -0.47699  -0.46792  -0.46663  -0.45192
 Alpha  occ. eigenvalues --   -0.45059  -0.45019  -0.44518  -0.44225  -0.44201
 Alpha  occ. eigenvalues --   -0.43846  -0.42844  -0.42281  -0.42251  -0.42081
 Alpha  occ. eigenvalues --   -0.42008  -0.41894  -0.40581  -0.40233  -0.40084
 Alpha  occ. eigenvalues --   -0.31545  -0.31315  -0.23659
 Alpha virt. eigenvalues --    0.07330   0.07476   0.08921   0.09305   0.09465
 Alpha virt. eigenvalues --    0.12730   0.12822   0.13095   0.13233   0.14815
 Alpha virt. eigenvalues --    0.14937   0.16409   0.21123   0.21221   0.24344

 Mulliken charges:
               1
     1  C    0.150204
     2  C   -0.482661
     3  C    0.166144
     4  C   -0.487355
     5  C    0.148753
     6  C   -0.480232
     7  C   -0.130880
     8  N   -0.038308
     9  C   -0.139548
    10  N   -0.027691
    11  C   -0.129533
    12  N   -0.045601
    13  C   -0.135109
    14  N   -0.029604
    15  C   -0.133760
    16  N   -0.035291
    17  C   -0.130444
    18  N   -0.039086
 Sum of Mulliken charges =  -2.00000

 Dipole moment (field-independent basis, Debye):
    X=             85.8847    Y=             16.3552    Z=             -9.9225  Tot=             87.9894
 Quadrupole moment (field-independent basis, Debye-Ang):
   XX=           -968.0199   YY=           -226.6013   ZZ=           -113.5817
   XY=           -145.5437   XZ=             89.6745   YZ=              7.2299

 Normal termination of Gaussian 16 at Fri Oct 11 16:03:46 2024.
