 Gaussian 16, Revision C.01,
 Gaussian 16:  ES64L-G16RevC.01  3-Jul-2019

 ----------------------------------------------------------------------
 # wb97xd def2svp scrf=(smd,solvent=acetonitrile) g09default scf=(xqc,m
 axcycle=64) force guess=read nosymm
 ----------------------------------------------------------------------

 ----------
 Title Card
 ----------
 Symbolic Z-matrix:
 Charge = -1 Multiplicity = 2

                          Input orientation:
 ---------------------------------------------------------------------
 Center     Atomic      Atomic             Coordinates (Angstroms)
 Number     Number       Type             X           Y           Z
 ---------------------------------------------------------------------
      1          6           0       -8.942512   -0.909311    1.108829
      2          6           0       -8.946741    0.482885    1.245329
      3          6           0       -8.244231   -2.116396    0.981951
      4          6           0       -7.043588   -2.808780    0.901773
      5          6           0       -9.639742   -2.110318    0.997662
      6          6           0      -10.860881   -2.812454    0.940273
      7          6           0      -10.170249    1.177695    1.335614
      8          7           0      -11.166089    1.770991    1.417853
      9          6           0       -7.726229    1.185899    1.318992
     10          7           0       -6.697541    1.710325    1.380426
     11          6           0       -5.805010   -2.120116    0.947235
     12          7           0       -4.803931   -1.515674    0.992583
     13          6           0       -7.034830   -4.222583    0.744083
     14          7           0       -7.025956   -5.370671    0.607763
     15          6           0      -10.842751   -4.227106    0.834329
     16          7           0      -10.801051   -5.380093    0.749805
     17          6           0      -12.086762   -2.109344    0.989449
     18          7           0      -13.071801   -1.495126    1.034858
 ---------------------------------------------------------------------

 SCF Done:  E(UwB97XD) =  -784.859454775     A.U. after   18 cycles

 Alpha  occ. eigenvalues --  -14.46106 -14.45919 -14.45878 -14.45796 -14.45792
 Alpha  occ. eigenvalues --  -14.45762 -10.38396 -10.38329 -10.38318 -10.38139
 Alpha  occ. eigenvalues --  -10.38020 -10.37900 -10.36267 -10.36075 -10.36007
 Alpha  occ. eigenvalues --  -10.35973 -10.35969 -10.35893  -1.06426  -1.02084
 Alpha  occ. eigenvalues --   -1.01999  -1.01631  -1.00852  -1.00795  -1.00612
 Alpha  occ. eigenvalues --   -0.92165  -0.91994  -0.90120  -0.72328  -0.72091
 Alpha  occ. eigenvalues --   -0.68925  -0.68704  -0.68498  -0.67612  -0.55615
 Alpha  occ. eigenvalues --   -0.51014  -0.50909  -0.49781  -0.49605  -0.47609
 Alpha  occ. eigenvalues --   -0.47513  -0.47483  -0.47007  -0.46801  -0.46767
 Alpha  occ. eigenvalues --   -0.46628  -0.45205  -0.44940  -0.44874  -0.44699
 Alpha  occ. eigenvalues --   -0.44454  -0.44333  -0.43003  -0.42800  -0.42677
 Alpha  occ. eigenvalues --   -0.35281  -0.35157  -0.28037
 Alpha virt. eigenvalues --    0.04671   0.04783   0.06537   0.06873   0.07008
 Alpha virt. eigenvalues --    0.10277   0.10299   0.10509   0.10693   0.12377
 Alpha virt. eigenvalues --    0.12537   0.14566   0.19383   0.19481   0.21114

  Beta  occ. eigenvalues --  -14.45910 -14.45717 -14.45680 -14.45615 -14.45601
  Beta  occ. eigenvalues --  -14.45571 -10.38434 -10.38368 -10.38359 -10.37775
  Beta  occ. eigenvalues --  -10.37676 -10.37547 -10.36360 -10.36171 -10.36100
  Beta  occ. eigenvalues --  -10.36061 -10.36059 -10.35984  -1.06041  -1.01729
  Beta  occ. eigenvalues --   -1.01650  -1.01280  -1.00513  -1.00458  -1.00284
  Beta  occ. eigenvalues --   -0.91411  -0.91212  -0.89142  -0.72199  -0.71959
  Beta  occ. eigenvalues --   -0.68709  -0.68465  -0.68263  -0.67455  -0.54845
  Beta  occ. eigenvalues --   -0.49730  -0.49694  -0.49578  -0.49483  -0.47250
  Beta  occ. eigenvalues --   -0.47147  -0.47122  -0.46646  -0.46511  -0.46491
  Beta  occ. eigenvalues --   -0.45479  -0.45102  -0.44308  -0.44187  -0.43982
  Beta  occ. eigenvalues --   -0.43960  -0.43874  -0.42859  -0.42661  -0.42534
  Beta  occ. eigenvalues --   -0.32350  -0.32058
  Beta virt. eigenvalues --   -0.10757   0.05361   0.05470   0.06646   0.06973
  Beta virt. eigenvalues --    0.07106   0.10507   0.11283   0.11357   0.11492
  Beta virt. eigenvalues --    0.12425   0.12590   0.14811   0.19572   0.19673

 Mulliken charges and spin densities:
               1          2
     1  C    0.173795  -0.051025
     2  C   -0.376073   0.303300
     3  C    0.188210  -0.052202
     4  C   -0.381915   0.297831
     5  C    0.170196  -0.051428
     6  C   -0.368839   0.314262
     7  C   -0.082628  -0.072738
     8  N    0.015209   0.114495
     9  C   -0.089770  -0.071310
    10  N    0.024731   0.110973
    11  C   -0.081447  -0.073671
    12  N    0.007678   0.113884
    13  C   -0.088469  -0.067880
    14  N    0.020913   0.104484
    15  C   -0.084641  -0.072459
    16  N    0.018076   0.111840
    17  C   -0.080511  -0.075336
    18  N    0.015485   0.116982
 Sum of Mulliken charges =  -1.00000   1.00000

 Dipole moment (field-independent basis, Debye):
    X=             42.7612    Y=              8.1763    Z=             -4.9688  Tot=             43.8185
 Quadrupole moment (field-independent basis, Debye-Ang):
   XX=           -552.0157   YY=           -184.3870   ZZ=           -104.1589
   XY=            -72.0545   XZ=             44.9720   YZ=              1.1963

 Normal termination of Gaussian 16 at Fri Oct 11 16:03:23 2024.
