 Gaussian 16, Revision C.01,
 Gaussian 16:  ES64L-G16RevC.01  3-Jul-2019

 ----------------------------------------------------------------------
 # wb97xd def2svp scrf=(smd,solvent=acetonitrile) g09default scf=(xqc,m
 axcycle=64) force guess=read nosymm
 ----------------------------------------------------------------------

 ----------
 Title Card
 ----------
 Symbolic Z-matrix:
 Charge = -2 Multiplicity = 1

                          Input orientation:
 ---------------------------------------------------------------------
 Center     Atomic      Atomic             Coordinates (Angstroms)
 Number     Number       Type             X           Y           Z
 ---------------------------------------------------------------------
      1          6           0       -8.939313   -0.930679    1.107978
      2          6           0       -8.938442    0.496157    1.251862
      3          6           0       -8.255596   -2.108795    0.980869
      4          6           0       -7.013175   -2.819937    0.897867
      5          6           0       -9.624124   -2.109548    0.995578
      6          6           0      -10.867072   -2.822412    0.936875
      7          6           0      -10.155908    1.178757    1.335794
      8          7           0      -11.178700    1.728215    1.402535
      9          6           0       -7.720001    1.179048    1.317966
     10          7           0       -6.696660    1.728867    1.372425
     11          6           0       -5.810329   -2.109045    0.953446
     12          7           0       -4.820969   -1.499444    1.000965
     13          6           0       -7.025023   -4.210456    0.750253
     14          7           0       -7.056466   -5.366421    0.627366
     15          6           0      -10.855486   -4.215867    0.819885
     16          7           0      -10.823999   -5.374714    0.727168
     17          6           0      -12.069791   -2.111857    0.999289
     18          7           0      -13.058841   -1.502047    1.050684
 ---------------------------------------------------------------------

 SCF Done:  E(RwB97XD) =  -785.030132020     A.U. after   12 cycles

 Alpha  occ. eigenvalues --  -14.42603 -14.42602 -14.42599 -14.42597 -14.42595
 Alpha  occ. eigenvalues --  -14.42593 -10.35557 -10.35468 -10.35459 -10.33528
 Alpha  occ. eigenvalues --  -10.33527 -10.33525 -10.33523 -10.33522 -10.33521
 Alpha  occ. eigenvalues --  -10.32657 -10.32654 -10.32647  -1.04601  -0.99058
 Alpha  occ. eigenvalues --   -0.99057  -0.98816  -0.97898  -0.97895  -0.97814
 Alpha  occ. eigenvalues --   -0.88103  -0.88098  -0.86529  -0.68850  -0.68833
 Alpha  occ. eigenvalues --   -0.65579  -0.65370  -0.65362  -0.63874  -0.52873
 Alpha  occ. eigenvalues --   -0.47836  -0.47832  -0.47251  -0.47241  -0.45081
 Alpha  occ. eigenvalues --   -0.44960  -0.44957  -0.44422  -0.44353  -0.44349
 Alpha  occ. eigenvalues --   -0.44334  -0.42623  -0.42147  -0.42144  -0.41960
 Alpha  occ. eigenvalues --   -0.41846  -0.41835  -0.40447  -0.40002  -0.39989
 Alpha  occ. eigenvalues --   -0.30946  -0.30940  -0.24281
 Alpha virt. eigenvalues --    0.07320   0.07335   0.08811   0.09245   0.09257
 Alpha virt. eigenvalues --    0.12717   0.12720   0.13127   0.13433   0.14891
 Alpha virt. eigenvalues --    0.14898   0.16188   0.21390   0.21402   0.24786

 Mulliken charges:
               1
     1  C    0.141166
     2  C   -0.475617
     3  C    0.141311
     4  C   -0.475663
     5  C    0.140947
     6  C   -0.475752
     7  C   -0.127274
     8  N   -0.038702
     9  C   -0.127267
    10  N   -0.038753
    11  C   -0.127138
    12  N   -0.038894
    13  C   -0.127406
    14  N   -0.038747
    15  C   -0.127394
    16  N   -0.038885
    17  C   -0.127056
    18  N   -0.038874
 Sum of Mulliken charges =  -2.00000

 Dipole moment (field-independent basis, Debye):
    X=             85.8747    Y=             16.4584    Z=             -9.9023  Tot=             87.9966
 Quadrupole moment (field-independent basis, Debye-Ang):
   XX=           -968.4501   YY=           -227.9867   ZZ=           -113.3731
   XY=           -147.2118   XZ=             89.3589   YZ=              7.2986

 Normal termination of Gaussian 16 at Fri Oct 11 15:30:35 2024.
