 Gaussian 16, Revision C.01,
 Gaussian 16:  ES64L-G16RevC.01  3-Jul-2019

 ----------------------------------------------------------------------
 # wb97xd def2svp scrf=(smd,solvent=acetonitrile) g09default scf=(xqc,m
 axcycle=64) force guess=read nosymm
 ----------------------------------------------------------------------

 ----------
 Title Card
 ----------
 Symbolic Z-matrix:
 Charge = -1 Multiplicity = 2

                          Input orientation:
 ---------------------------------------------------------------------
 Center     Atomic      Atomic             Coordinates (Angstroms)
 Number     Number       Type             X           Y           Z
 ---------------------------------------------------------------------
      1          6           0       -8.939313   -0.930679    1.107978
      2          6           0       -8.938442    0.496157    1.251862
      3          6           0       -8.255596   -2.108795    0.980869
      4          6           0       -7.013175   -2.819937    0.897867
      5          6           0       -9.624124   -2.109548    0.995578
      6          6           0      -10.867072   -2.822412    0.936875
      7          6           0      -10.155908    1.178757    1.335794
      8          7           0      -11.178700    1.728215    1.402535
      9          6           0       -7.720001    1.179048    1.317966
     10          7           0       -6.696660    1.728867    1.372425
     11          6           0       -5.810329   -2.109045    0.953446
     12          7           0       -4.820969   -1.499444    1.000965
     13          6           0       -7.025023   -4.210456    0.750253
     14          7           0       -7.056466   -5.366421    0.627366
     15          6           0      -10.855486   -4.215867    0.819885
     16          7           0      -10.823999   -5.374714    0.727168
     17          6           0      -12.069791   -2.111857    0.999289
     18          7           0      -13.058841   -1.502047    1.050684
 ---------------------------------------------------------------------

 SCF Done:  E(UwB97XD) =  -784.850675380     A.U. after   16 cycles

 Alpha  occ. eigenvalues --  -14.45850 -14.45848 -14.45846 -14.45844 -14.45842
 Alpha  occ. eigenvalues --  -14.45839 -10.38652 -10.38563 -10.38555 -10.37965
 Alpha  occ. eigenvalues --  -10.37962 -10.37955 -10.35954 -10.35953 -10.35952
 Alpha  occ. eigenvalues --  -10.35950 -10.35950 -10.35948  -1.08028  -1.01985
 Alpha  occ. eigenvalues --   -1.01984  -1.01716  -1.00685  -1.00683  -1.00607
 Alpha  occ. eigenvalues --   -0.91961  -0.91956  -0.90499  -0.72231  -0.72215
 Alpha  occ. eigenvalues --   -0.69182  -0.68913  -0.68906  -0.67380  -0.55983
 Alpha  occ. eigenvalues --   -0.51071  -0.51068  -0.50215  -0.50205  -0.47580
 Alpha  occ. eigenvalues --   -0.47467  -0.47464  -0.47131  -0.46967  -0.46918
 Alpha  occ. eigenvalues --   -0.46914  -0.45028  -0.44839  -0.44837  -0.44669
 Alpha  occ. eigenvalues --   -0.44302  -0.44293  -0.42908  -0.42597  -0.42583
 Alpha  occ. eigenvalues --   -0.34760  -0.34754  -0.28667
 Alpha virt. eigenvalues --    0.04763   0.04778   0.06366   0.06780   0.06792
 Alpha virt. eigenvalues --    0.10174   0.10177   0.10543   0.10863   0.12441
 Alpha virt. eigenvalues --    0.12447   0.14364   0.19712   0.19723   0.21541

  Beta  occ. eigenvalues --  -14.45643 -14.45641 -14.45639 -14.45637 -14.45635
  Beta  occ. eigenvalues --  -14.45632 -10.38699 -10.38612 -10.38604 -10.37608
  Beta  occ. eigenvalues --  -10.37605 -10.37598 -10.36051 -10.36049 -10.36048
  Beta  occ. eigenvalues --  -10.36047 -10.36047 -10.36044  -1.07700  -1.01610
  Beta  occ. eigenvalues --   -1.01609  -1.01341  -1.00324  -1.00322  -1.00247
  Beta  occ. eigenvalues --   -0.91166  -0.91162  -0.89527  -0.72118  -0.72101
  Beta  occ. eigenvalues --   -0.68918  -0.68727  -0.68719  -0.67250  -0.55362
  Beta  occ. eigenvalues --   -0.50135  -0.50125  -0.49759  -0.49755  -0.47194
  Beta  occ. eigenvalues --   -0.47081  -0.47078  -0.46593  -0.46589  -0.46581
  Beta  occ. eigenvalues --   -0.45963  -0.44919  -0.44148  -0.44139  -0.43810
  Beta  occ. eigenvalues --   -0.43808  -0.43797  -0.42750  -0.42450  -0.42436
  Beta  occ. eigenvalues --   -0.31471  -0.31465
  Beta virt. eigenvalues --   -0.11544   0.05250   0.05264   0.06478   0.06879
  Beta virt. eigenvalues --    0.06891   0.10874   0.11258   0.11261   0.11356
  Beta virt. eigenvalues --    0.12490   0.12495   0.14630   0.19884   0.19894

 Mulliken charges and spin densities:
               1          2
     1  C    0.160157  -0.058877
     2  C   -0.367288   0.304542
     3  C    0.159918  -0.059228
     4  C   -0.367128   0.304506
     5  C    0.159483  -0.059200
     6  C   -0.367052   0.304653
     7  C   -0.078521  -0.076265
     8  N    0.015586   0.120212
     9  C   -0.078443  -0.076269
    10  N    0.015532   0.120204
    11  C   -0.078402  -0.076297
    12  N    0.015375   0.120220
    13  C   -0.078585  -0.076216
    14  N    0.015489   0.120127
    15  C   -0.078570  -0.076281
    16  N    0.015396   0.120213
    17  C   -0.078384  -0.076339
    18  N    0.015438   0.120296
 Sum of Mulliken charges =  -1.00000   1.00000

 Dipole moment (field-independent basis, Debye):
    X=             42.9354    Y=              8.2226    Z=             -4.9568  Tot=             43.9958
 Quadrupole moment (field-independent basis, Debye-Ang):
   XX=           -555.3774   YY=           -184.9465   ZZ=           -104.0022
   XY=            -73.5589   XZ=             44.9183   YZ=              1.3016

 Normal termination of Gaussian 16 at Fri Oct 11 15:30:13 2024.
