 Gaussian 16, Revision C.01,
 Gaussian 16:  ES64L-G16RevC.01  3-Jul-2019

 ----------------------------------------------------------------------
 # wb97xd def2svp scrf=(smd,solvent=acetonitrile) g09default scf=(xqc,m
 axcycle=64) force guess=read nosymm
 ----------------------------------------------------------------------

 ----------
 Title Card
 ----------
 Symbolic Z-matrix:
 Charge = -2 Multiplicity = 1

                          Input orientation:
 ---------------------------------------------------------------------
 Center     Atomic      Atomic             Coordinates (Angstroms)
 Number     Number       Type             X           Y           Z
 ---------------------------------------------------------------------
      1          6           0       -8.942193   -0.909400    1.108172
      2          6           0       -8.949729    0.470050    1.244439
      3          6           0       -8.252090   -2.111645    0.984143
      4          6           0       -7.037511   -2.811337    0.900536
      5          6           0       -9.645260   -2.112578    0.997325
      6          6           0      -10.852512   -2.809993    0.940550
      7          6           0      -10.174388    1.181713    1.335785
      8          7           0      -11.169791    1.774392    1.419018
      9          6           0       -7.723224    1.183711    1.319694
     10          7           0       -6.690064    1.716186    1.381333
     11          6           0       -5.799945   -2.112635    0.947956
     12          7           0       -4.807146   -1.521185    0.991185
     13          6           0       -7.036296   -4.219667    0.743376
     14          7           0       -7.024839   -5.376792    0.605477
     15          6           0      -10.841317   -4.224622    0.834869
     16          7           0      -10.799670   -5.386524    0.751281
     17          6           0      -12.088807   -2.105238    0.990149
     18          7           0      -13.075109   -1.494613    1.033516
 ---------------------------------------------------------------------

 SCF Done:  E(RwB97XD) =  -785.032151572     A.U. after   12 cycles

 Alpha  occ. eigenvalues --  -14.42856 -14.42828 -14.42814 -14.42799 -14.42717
 Alpha  occ. eigenvalues --  -14.42629 -10.35056 -10.34992 -10.34967 -10.33774
 Alpha  occ. eigenvalues --  -10.33770 -10.33754 -10.33716 -10.33679 -10.33574
 Alpha  occ. eigenvalues --  -10.32828 -10.32741 -10.32725  -1.02886  -0.99121
 Alpha  occ. eigenvalues --   -0.99103  -0.98725  -0.98033  -0.98009  -0.97930
 Alpha  occ. eigenvalues --   -0.88269  -0.88048  -0.86026  -0.68774  -0.68666
 Alpha  occ. eigenvalues --   -0.65154  -0.65055  -0.64876  -0.64059  -0.52372
 Alpha  occ. eigenvalues --   -0.47707  -0.47640  -0.46799  -0.46671  -0.45203
 Alpha  occ. eigenvalues --   -0.45104  -0.45044  -0.44544  -0.44210  -0.44173
 Alpha  occ. eigenvalues --   -0.43817  -0.42832  -0.42247  -0.42230  -0.42055
 Alpha  occ. eigenvalues --   -0.41968  -0.41912  -0.40558  -0.40282  -0.40055
 Alpha  occ. eigenvalues --   -0.31568  -0.31390  -0.23620
 Alpha virt. eigenvalues --    0.07393   0.07507   0.08879   0.09279   0.09362
 Alpha virt. eigenvalues --    0.12647   0.12738   0.13006   0.13149   0.14720
 Alpha virt. eigenvalues --    0.14901   0.16370   0.21088   0.21137   0.24156

 Mulliken charges:
               1
     1  C    0.162540
     2  C   -0.484484
     3  C    0.153556
     4  C   -0.487684
     5  C    0.159149
     6  C   -0.479816
     7  C   -0.131350
     8  N   -0.035783
     9  C   -0.134781
    10  N   -0.038880
    11  C   -0.138028
    12  N   -0.027961
    13  C   -0.131804
    14  N   -0.044066
    15  C   -0.129180
    16  N   -0.044733
    17  C   -0.131164
    18  N   -0.035532
 Sum of Mulliken charges =  -2.00000

 Dipole moment (field-independent basis, Debye):
    X=             85.5891    Y=             16.6708    Z=             -9.8853  Tot=             87.7560
 Quadrupole moment (field-independent basis, Debye-Ang):
   XX=           -962.3539   YY=           -228.3013   ZZ=           -113.5704
   XY=           -147.5566   XZ=             89.0840   YZ=              7.4251

 Normal termination of Gaussian 16 at Fri Oct 11 16:04:39 2024.
