 Gaussian 16, Revision C.01,
 Gaussian 16:  ES64L-G16RevC.01  3-Jul-2019

 ----------------------------------------------------------------------
 # wb97xd def2svp scrf=(smd,solvent=acetonitrile) g09default scf=(xqc,m
 axcycle=64) force guess=read nosymm
 ----------------------------------------------------------------------

 ----------
 Title Card
 ----------
 Symbolic Z-matrix:
 Charge = -1 Multiplicity = 2

                          Input orientation:
 ---------------------------------------------------------------------
 Center     Atomic      Atomic             Coordinates (Angstroms)
 Number     Number       Type             X           Y           Z
 ---------------------------------------------------------------------
      1          6           0       -8.942193   -0.909400    1.108172
      2          6           0       -8.949729    0.470050    1.244439
      3          6           0       -8.252090   -2.111645    0.984143
      4          6           0       -7.037511   -2.811337    0.900536
      5          6           0       -9.645260   -2.112578    0.997325
      6          6           0      -10.852512   -2.809993    0.940550
      7          6           0      -10.174388    1.181713    1.335785
      8          7           0      -11.169791    1.774392    1.419018
      9          6           0       -7.723224    1.183711    1.319694
     10          7           0       -6.690064    1.716186    1.381333
     11          6           0       -5.799945   -2.112635    0.947956
     12          7           0       -4.807146   -1.521185    0.991185
     13          6           0       -7.036296   -4.219667    0.743376
     14          7           0       -7.024839   -5.376792    0.605477
     15          6           0      -10.841317   -4.224622    0.834869
     16          7           0      -10.799670   -5.386524    0.751281
     17          6           0      -12.088807   -2.105238    0.990149
     18          7           0      -13.075109   -1.494613    1.033516
 ---------------------------------------------------------------------

 SCF Done:  E(UwB97XD) =  -784.860247265     A.U. after   18 cycles

 Alpha  occ. eigenvalues --  -14.45991 -14.45985 -14.45968 -14.45928 -14.45912
 Alpha  occ. eigenvalues --  -14.45828 -10.38324 -10.38264 -10.38218 -10.38159
 Alpha  occ. eigenvalues --  -10.38106 -10.37978 -10.36165 -10.36144 -10.36138
 Alpha  occ. eigenvalues --  -10.36126 -10.36080 -10.36010  -1.06523  -1.01994
 Alpha  occ. eigenvalues --   -1.01926  -1.01561  -1.00764  -1.00706  -1.00652
 Alpha  occ. eigenvalues --   -0.92097  -0.91959  -0.90052  -0.72230  -0.72135
 Alpha  occ. eigenvalues --   -0.68714  -0.68612  -0.68476  -0.67671  -0.55649
 Alpha  occ. eigenvalues --   -0.50893  -0.50857  -0.49789  -0.49613  -0.47627
 Alpha  occ. eigenvalues --   -0.47521  -0.47514  -0.47022  -0.46786  -0.46751
 Alpha  occ. eigenvalues --   -0.46598  -0.45188  -0.44881  -0.44834  -0.44685
 Alpha  occ. eigenvalues --   -0.44396  -0.44353  -0.42958  -0.42843  -0.42649
 Alpha  occ. eigenvalues --   -0.35308  -0.35226  -0.27999
 Alpha virt. eigenvalues --    0.04722   0.04819   0.06480   0.06859   0.06933
 Alpha virt. eigenvalues --    0.10180   0.10251   0.10426   0.10618   0.12316
 Alpha virt. eigenvalues --    0.12465   0.14527   0.19324   0.19383   0.20928

  Beta  occ. eigenvalues --  -14.45797 -14.45782 -14.45779 -14.45741 -14.45723
  Beta  occ. eigenvalues --  -14.45637 -10.38360 -10.38301 -10.38257 -10.37796
  Beta  occ. eigenvalues --  -10.37757 -10.37633 -10.36258 -10.36241 -10.36229
  Beta  occ. eigenvalues --  -10.36216 -10.36170 -10.36102  -1.06131  -1.01639
  Beta  occ. eigenvalues --   -1.01581  -1.01211  -1.00423  -1.00381  -1.00324
  Beta  occ. eigenvalues --   -0.91348  -0.91177  -0.89073  -0.72097  -0.72002
  Beta  occ. eigenvalues --   -0.68498  -0.68398  -0.68213  -0.67512  -0.54875
  Beta  occ. eigenvalues --   -0.49679  -0.49603  -0.49574  -0.49467  -0.47268
  Beta  occ. eigenvalues --   -0.47165  -0.47152  -0.46664  -0.46503  -0.46474
  Beta  occ. eigenvalues --   -0.45444  -0.45085  -0.44251  -0.44208  -0.43928
  Beta  occ. eigenvalues --   -0.43913  -0.43889  -0.42813  -0.42705  -0.42507
  Beta  occ. eigenvalues --   -0.32378  -0.32156
  Beta virt. eigenvalues --   -0.10703   0.05419   0.05515   0.06591   0.06958
  Beta virt. eigenvalues --    0.07028   0.10422   0.11205   0.11281   0.11408
  Beta virt. eigenvalues --    0.12363   0.12515   0.14777   0.19524   0.19579

 Mulliken charges and spin densities:
               1          2
     1  C    0.185123  -0.051108
     2  C   -0.378911   0.299708
     3  C    0.175805  -0.051435
     4  C   -0.376098   0.314909
     5  C    0.180713  -0.050755
     6  C   -0.372391   0.303550
     7  C   -0.084211  -0.070548
     8  N    0.016177   0.109177
     9  C   -0.086276  -0.071223
    10  N    0.013372   0.109503
    11  C   -0.087770  -0.072579
    12  N    0.024966   0.111126
    13  C   -0.082279  -0.075772
    14  N    0.011109   0.118021
    15  C   -0.081480  -0.072863
    16  N    0.008629   0.112667
    17  C   -0.082889  -0.070703
    18  N    0.016413   0.108326
 Sum of Mulliken charges =  -1.00000   1.00000

 Dipole moment (field-independent basis, Debye):
    X=             42.7733    Y=              8.2774    Z=             -4.9570  Tot=             43.8480
 Quadrupole moment (field-independent basis, Debye-Ang):
   XX=           -552.0512   YY=           -185.2185   ZZ=           -104.1905
   XY=            -73.0199   XZ=             44.8832   YZ=              1.2375

 Normal termination of Gaussian 16 at Fri Oct 11 16:04:17 2024.
