 Gaussian 16, Revision C.01,
 Gaussian 16:  ES64L-G16RevC.01  3-Jul-2019

 ----------------------------------------------------------------------
 # wb97xd def2svp scrf=(smd,solvent=acetonitrile) g09default scf=(xqc,m
 axcycle=64) force guess=read nosymm
 ----------------------------------------------------------------------

 ----------
 Title Card
 ----------
 Symbolic Z-matrix:
 Charge = -2 Multiplicity = 1

                          Input orientation:
 ---------------------------------------------------------------------
 Center     Atomic      Atomic             Coordinates (Angstroms)
 Number     Number       Type             X           Y           Z
 ---------------------------------------------------------------------
      1          6           0       -8.942722   -0.911797    1.108168
      2          6           0       -8.949866    0.473255    1.244784
      3          6           0       -8.252910   -2.111185    0.984093
      4          6           0       -7.035704   -2.812657    0.900462
      5          6           0       -9.642678   -2.110861    0.997546
      6          6           0      -10.855727   -2.811849    0.940460
      7          6           0      -10.173233    1.184858    1.336314
      8          7           0      -11.170290    1.774006    1.419087
      9          6           0       -7.723618    1.186284    1.320072
     10          7           0       -6.690310    1.715370    1.381359
     11          6           0       -5.799774   -2.115591    0.947734
     12          7           0       -4.806086   -1.519836    0.990967
     13          6           0       -7.033992   -4.219139    0.742970
     14          7           0       -7.024535   -5.377897    0.604900
     15          6           0      -10.843458   -4.224230    0.835235
     16          7           0      -10.799990   -5.386946    0.751707
     17          6           0      -12.089389   -2.107447    0.989751
     18          7           0      -13.075614   -1.494516    1.033196
 ---------------------------------------------------------------------

 SCF Done:  E(RwB97XD) =  -785.032689605     A.U. after   11 cycles

 Alpha  occ. eigenvalues --  -14.42817 -14.42816 -14.42805 -14.42773 -14.42755
 Alpha  occ. eigenvalues --  -14.42688 -10.35138 -10.35070 -10.35049 -10.33763
 Alpha  occ. eigenvalues --  -10.33751 -10.33736 -10.33715 -10.33693 -10.33634
 Alpha  occ. eigenvalues --  -10.32831 -10.32767 -10.32759  -1.03114  -0.99118
 Alpha  occ. eigenvalues --   -0.99049  -0.98716  -0.98057  -0.97946  -0.97866
 Alpha  occ. eigenvalues --   -0.88209  -0.88035  -0.86081  -0.68776  -0.68683
 Alpha  occ. eigenvalues --   -0.65172  -0.65042  -0.64923  -0.64058  -0.52430
 Alpha  occ. eigenvalues --   -0.47706  -0.47637  -0.46848  -0.46764  -0.45192
 Alpha  occ. eigenvalues --   -0.45089  -0.45047  -0.44535  -0.44235  -0.44208
 Alpha  occ. eigenvalues --   -0.43879  -0.42806  -0.42248  -0.42185  -0.42020
 Alpha  occ. eigenvalues --   -0.41940  -0.41880  -0.40536  -0.40255  -0.40052
 Alpha  occ. eigenvalues --   -0.31491  -0.31333  -0.23719
 Alpha virt. eigenvalues --    0.07377   0.07448   0.08851   0.09271   0.09309
 Alpha virt. eigenvalues --    0.12628   0.12726   0.13022   0.13116   0.14711
 Alpha virt. eigenvalues --    0.14838   0.16340   0.21106   0.21155   0.24165

 Mulliken charges:
               1
     1  C    0.160915
     2  C   -0.484123
     3  C    0.154240
     4  C   -0.485867
     5  C    0.156493
     6  C   -0.478371
     7  C   -0.130623
     8  N   -0.036120
     9  C   -0.134499
    10  N   -0.037989
    11  C   -0.135079
    12  N   -0.032112
    13  C   -0.129281
    14  N   -0.046252
    15  C   -0.127500
    16  N   -0.046562
    17  C   -0.129539
    18  N   -0.037731
 Sum of Mulliken charges =  -2.00000

 Dipole moment (field-independent basis, Debye):
    X=             85.6283    Y=             16.6861    Z=             -9.8829  Tot=             87.7969
 Quadrupole moment (field-independent basis, Debye-Ang):
   XX=           -963.2984   YY=           -228.4704   ZZ=           -113.5690
   XY=           -147.7877   XZ=             89.1053   YZ=              7.4276

 Normal termination of Gaussian 16 at Fri Oct 11 16:05:28 2024.
