 Gaussian 16, Revision C.01,
 Gaussian 16:  ES64L-G16RevC.01  3-Jul-2019

 ----------------------------------------------------------------------
 # wb97xd def2svp scrf=(smd,solvent=acetonitrile) g09default scf=(xqc,m
 axcycle=64) force guess=read nosymm
 ----------------------------------------------------------------------

 ----------
 Title Card
 ----------
 Symbolic Z-matrix:
 Charge = -1 Multiplicity = 2

                          Input orientation:
 ---------------------------------------------------------------------
 Center     Atomic      Atomic             Coordinates (Angstroms)
 Number     Number       Type             X           Y           Z
 ---------------------------------------------------------------------
      1          6           0       -8.942722   -0.911797    1.108168
      2          6           0       -8.949866    0.473255    1.244784
      3          6           0       -8.252910   -2.111185    0.984093
      4          6           0       -7.035704   -2.812657    0.900462
      5          6           0       -9.642678   -2.110861    0.997546
      6          6           0      -10.855727   -2.811849    0.940460
      7          6           0      -10.173233    1.184858    1.336314
      8          7           0      -11.170290    1.774006    1.419087
      9          6           0       -7.723618    1.186284    1.320072
     10          7           0       -6.690310    1.715370    1.381359
     11          6           0       -5.799774   -2.115591    0.947734
     12          7           0       -4.806086   -1.519836    0.990967
     13          6           0       -7.033992   -4.219139    0.742970
     14          7           0       -7.024535   -5.377897    0.604900
     15          6           0      -10.843458   -4.224230    0.835235
     16          7           0      -10.799990   -5.386946    0.751707
     17          6           0      -12.089389   -2.107447    0.989751
     18          7           0      -13.075614   -1.494516    1.033196
 ---------------------------------------------------------------------

 SCF Done:  E(UwB97XD) =  -784.859680834     A.U. after   16 cycles

 Alpha  occ. eigenvalues --  -14.46015 -14.46003 -14.45946 -14.45932 -14.45897
 Alpha  occ. eigenvalues --  -14.45887 -10.38380 -10.38317 -10.38271 -10.38159
 Alpha  occ. eigenvalues --  -10.38129 -10.38013 -10.36170 -10.36169 -10.36136
 Alpha  occ. eigenvalues --  -10.36101 -10.36063 -10.36061  -1.06724  -1.01957
 Alpha  occ. eigenvalues --   -1.01916  -1.01563  -1.00735  -1.00688  -1.00617
 Alpha  occ. eigenvalues --   -0.92046  -0.91933  -0.90096  -0.72222  -0.72135
 Alpha  occ. eigenvalues --   -0.68733  -0.68610  -0.68502  -0.67653  -0.55683
 Alpha  occ. eigenvalues --   -0.50891  -0.50858  -0.49831  -0.49714  -0.47628
 Alpha  occ. eigenvalues --   -0.47523  -0.47512  -0.47022  -0.46805  -0.46782
 Alpha  occ. eigenvalues --   -0.46659  -0.45165  -0.44846  -0.44828  -0.44669
 Alpha  occ. eigenvalues --   -0.44365  -0.44328  -0.42943  -0.42814  -0.42640
 Alpha  occ. eigenvalues --   -0.35245  -0.35159  -0.28099
 Alpha virt. eigenvalues --    0.04715   0.04791   0.06441   0.06842   0.06891
 Alpha virt. eigenvalues --    0.10134   0.10241   0.10443   0.10592   0.12297
 Alpha virt. eigenvalues --    0.12412   0.14494   0.19347   0.19405   0.20935

  Beta  occ. eigenvalues --  -14.45811 -14.45805 -14.45755 -14.45743 -14.45707
  Beta  occ. eigenvalues --  -14.45693 -10.38418 -10.38355 -10.38312 -10.37798
  Beta  occ. eigenvalues --  -10.37776 -10.37665 -10.36266 -10.36264 -10.36227
  Beta  occ. eigenvalues --  -10.36192 -10.36155 -10.36153  -1.06340  -1.01605
  Beta  occ. eigenvalues --   -1.01562  -1.01209  -1.00408  -1.00347  -1.00280
  Beta  occ. eigenvalues --   -0.91287  -0.91151  -0.89117  -0.72093  -0.72008
  Beta  occ. eigenvalues --   -0.68518  -0.68393  -0.68244  -0.67499  -0.54930
  Beta  occ. eigenvalues --   -0.49723  -0.49631  -0.49597  -0.49520  -0.47264
  Beta  occ. eigenvalues --   -0.47160  -0.47150  -0.46661  -0.46518  -0.46498
  Beta  occ. eigenvalues --   -0.45503  -0.45062  -0.44220  -0.44182  -0.43921
  Beta  occ. eigenvalues --   -0.43873  -0.43847  -0.42797  -0.42674  -0.42496
  Beta  occ. eigenvalues --   -0.32259  -0.32067
  Beta virt. eigenvalues --   -0.10824   0.05382   0.05457   0.06552   0.06942
  Beta virt. eigenvalues --    0.06987   0.10442   0.11175   0.11275   0.11376
  Beta virt. eigenvalues --    0.12343   0.12462   0.14747   0.19545   0.19601

 Mulliken charges and spin densities:
               1          2
     1  C    0.182676  -0.053137
     2  C   -0.377770   0.301551
     3  C    0.176137  -0.052358
     4  C   -0.375166   0.312299
     5  C    0.177589  -0.051803
     6  C   -0.370298   0.305202
     7  C   -0.083466  -0.071212
     8  N    0.015987   0.110157
     9  C   -0.086034  -0.071445
    10  N    0.014181   0.109688
    11  C   -0.085169  -0.073414
    12  N    0.021109   0.112688
    13  C   -0.080139  -0.076134
    14  N    0.008911   0.118712
    15  C   -0.079584  -0.074078
    16  N    0.007308   0.114734
    17  C   -0.081053  -0.072007
    18  N    0.014781   0.110556
 Sum of Mulliken charges =  -1.00000   1.00000

 Dipole moment (field-independent basis, Debye):
    X=             42.7703    Y=              8.2956    Z=             -4.9539  Tot=             43.8481
 Quadrupole moment (field-independent basis, Debye-Ang):
   XX=           -552.1366   YY=           -185.3170   ZZ=           -104.1930
   XY=            -73.1667   XZ=             44.8577   YZ=              1.2492

 Normal termination of Gaussian 16 at Fri Oct 11 16:05:07 2024.
