 Gaussian 16, Revision C.01,
 Gaussian 16:  ES64L-G16RevC.01  3-Jul-2019

 ----------------------------------------------------------------------
 # wb97xd def2svp scrf=(smd,solvent=acetonitrile) g09default scf=(xqc,m
 axcycle=64) force guess=read nosymm
 ----------------------------------------------------------------------

 ----------
 Title Card
 ----------
 Symbolic Z-matrix:
 Charge = -2 Multiplicity = 1

                          Input orientation:
 ---------------------------------------------------------------------
 Center     Atomic      Atomic             Coordinates (Angstroms)
 Number     Number       Type             X           Y           Z
 ---------------------------------------------------------------------
      1          6           0       -8.942032   -0.902822    1.110268
      2          6           0       -8.947981    0.481793    1.246325
      3          6           0       -8.245987   -2.115440    0.983461
      4          6           0       -7.031033   -2.815603    0.900605
      5          6           0       -9.645051   -2.113548    0.997396
      6          6           0      -10.862362   -2.816171    0.939866
      7          6           0      -10.172380    1.198725    1.337682
      8          7           0      -11.181830    1.771474    1.418604
      9          6           0       -7.722979    1.203840    1.321700
     10          7           0       -6.680524    1.717510    1.381170
     11          6           0       -5.782612   -2.120298    0.947368
     12          7           0       -4.800673   -1.510963    0.991361
     13          6           0       -7.022139   -4.226825    0.741788
     14          7           0       -7.027399   -5.389206    0.603177
     15          6           0      -10.857450   -4.233941    0.833990
     16          7           0      -10.802014   -5.395849    0.750338
     17          6           0      -12.104350   -2.111366    0.989532
     18          7           0      -13.081099   -1.491489    1.034175
 ---------------------------------------------------------------------

 SCF Done:  E(RwB97XD) =  -785.031295473     A.U. after   12 cycles

 Alpha  occ. eigenvalues --  -14.42905 -14.42876 -14.42870 -14.42822 -14.42756
 Alpha  occ. eigenvalues --  -14.42744 -10.35320 -10.35255 -10.35251 -10.33852
 Alpha  occ. eigenvalues --  -10.33819 -10.33794 -10.33790 -10.33712 -10.33690
 Alpha  occ. eigenvalues --  -10.32986 -10.32965 -10.32931  -1.02502  -0.99115
 Alpha  occ. eigenvalues --   -0.99101  -0.98709  -0.98037  -0.98002  -0.97861
 Alpha  occ. eigenvalues --   -0.88148  -0.87891  -0.85863  -0.68714  -0.68564
 Alpha  occ. eigenvalues --   -0.65018  -0.64929  -0.64688  -0.63976  -0.52156
 Alpha  occ. eigenvalues --   -0.47660  -0.47570  -0.46777  -0.46663  -0.45223
 Alpha  occ. eigenvalues --   -0.45105  -0.45087  -0.44560  -0.44229  -0.44209
 Alpha  occ. eigenvalues --   -0.43762  -0.42867  -0.42256  -0.42219  -0.42053
 Alpha  occ. eigenvalues --   -0.41962  -0.41845  -0.40566  -0.40372  -0.40050
 Alpha  occ. eigenvalues --   -0.31569  -0.31403  -0.23639
 Alpha virt. eigenvalues --    0.07203   0.07275   0.08902   0.09217   0.09343
 Alpha virt. eigenvalues --    0.12661   0.12688   0.12733   0.13115   0.14539
 Alpha virt. eigenvalues --    0.14692   0.16265   0.21003   0.21087   0.23947

 Mulliken charges:
               1
     1  C    0.164089
     2  C   -0.484062
     3  C    0.157027
     4  C   -0.487158
     5  C    0.154262
     6  C   -0.480897
     7  C   -0.125700
     8  N   -0.042923
     9  C   -0.128303
    10  N   -0.043230
    11  C   -0.131954
    12  N   -0.032076
    13  C   -0.123997
    14  N   -0.054818
    15  C   -0.124710
    16  N   -0.050347
    17  C   -0.128428
    18  N   -0.036775
 Sum of Mulliken charges =  -2.00000

 Dipole moment (field-independent basis, Debye):
    X=             85.7232    Y=             16.7623    Z=             -9.8747  Tot=             87.9031
 Quadrupole moment (field-independent basis, Debye-Ang):
   XX=           -964.7344   YY=           -228.7305   ZZ=           -113.6998
   XY=           -148.7159   XZ=             89.1280   YZ=              7.5052

 Normal termination of Gaussian 16 at Fri Oct 11 16:06:18 2024.
