 Gaussian 16, Revision C.01,
 Gaussian 16:  ES64L-G16RevC.01  3-Jul-2019

 ----------------------------------------------------------------------
 # wb97xd def2svp scrf=(smd,solvent=acetonitrile) g09default scf=(xqc,m
 axcycle=64) force guess=read nosymm
 ----------------------------------------------------------------------

 ----------
 Title Card
 ----------
 Symbolic Z-matrix:
 Charge = -1 Multiplicity = 2

                          Input orientation:
 ---------------------------------------------------------------------
 Center     Atomic      Atomic             Coordinates (Angstroms)
 Number     Number       Type             X           Y           Z
 ---------------------------------------------------------------------
      1          6           0       -8.942032   -0.902822    1.110268
      2          6           0       -8.947981    0.481793    1.246325
      3          6           0       -8.245987   -2.115440    0.983461
      4          6           0       -7.031033   -2.815603    0.900605
      5          6           0       -9.645051   -2.113548    0.997396
      6          6           0      -10.862362   -2.816171    0.939866
      7          6           0      -10.172380    1.198725    1.337682
      8          7           0      -11.181830    1.771474    1.418604
      9          6           0       -7.722979    1.203840    1.321700
     10          7           0       -6.680524    1.717510    1.381170
     11          6           0       -5.782612   -2.120298    0.947368
     12          7           0       -4.800673   -1.510963    0.991361
     13          6           0       -7.022139   -4.226825    0.741788
     14          7           0       -7.027399   -5.389206    0.603177
     15          6           0      -10.857450   -4.233941    0.833990
     16          7           0      -10.802014   -5.395849    0.750338
     17          6           0      -12.104350   -2.111366    0.989532
     18          7           0      -13.081099   -1.491489    1.034175
 ---------------------------------------------------------------------

 SCF Done:  E(UwB97XD) =  -784.859250052     A.U. after   17 cycles

 Alpha  occ. eigenvalues --  -14.46119 -14.46032 -14.45988 -14.45966 -14.45889
 Alpha  occ. eigenvalues --  -14.45869 -10.38558 -10.38500 -10.38477 -10.38343
 Alpha  occ. eigenvalues --  -10.38326 -10.38136 -10.36292 -10.36216 -10.36164
 Alpha  occ. eigenvalues --  -10.36144 -10.36105 -10.36080  -1.06101  -1.01950
 Alpha  occ. eigenvalues --   -1.01912  -1.01528  -1.00749  -1.00681  -1.00616
 Alpha  occ. eigenvalues --   -0.91971  -0.91799  -0.89884  -0.72149  -0.72017
 Alpha  occ. eigenvalues --   -0.68583  -0.68453  -0.68276  -0.67571  -0.55412
 Alpha  occ. eigenvalues --   -0.50820  -0.50783  -0.49731  -0.49585  -0.47642
 Alpha  occ. eigenvalues --   -0.47535  -0.47528  -0.47032  -0.46791  -0.46775
 Alpha  occ. eigenvalues --   -0.46522  -0.45209  -0.44871  -0.44821  -0.44676
 Alpha  occ. eigenvalues --   -0.44390  -0.44292  -0.42951  -0.42910  -0.42634
 Alpha  occ. eigenvalues --   -0.35308  -0.35230  -0.28017
 Alpha virt. eigenvalues --    0.04558   0.04601   0.06511   0.06824   0.06918
 Alpha virt. eigenvalues --    0.10109   0.10197   0.10259   0.10602   0.12131
 Alpha virt. eigenvalues --    0.12265   0.14416   0.19215   0.19308   0.20730

  Beta  occ. eigenvalues --  -14.45914 -14.45833 -14.45802 -14.45778 -14.45703
  Beta  occ. eigenvalues --  -14.45684 -10.38597 -10.38539 -10.38518 -10.37982
  Beta  occ. eigenvalues --  -10.37965 -10.37791 -10.36389 -10.36312 -10.36254
  Beta  occ. eigenvalues --  -10.36235 -10.36196 -10.36170  -1.05718  -1.01603
  Beta  occ. eigenvalues --   -1.01567  -1.01182  -1.00415  -1.00356  -1.00277
  Beta  occ. eigenvalues --   -0.91214  -0.91009  -0.88897  -0.72027  -0.71891
  Beta  occ. eigenvalues --   -0.68359  -0.68239  -0.68011  -0.67416  -0.54636
  Beta  occ. eigenvalues --   -0.49635  -0.49537  -0.49485  -0.49434  -0.47280
  Beta  occ. eigenvalues --   -0.47173  -0.47168  -0.46676  -0.46518  -0.46500
  Beta  occ. eigenvalues --   -0.45385  -0.45108  -0.44245  -0.44148  -0.43941
  Beta  occ. eigenvalues --   -0.43893  -0.43866  -0.42809  -0.42774  -0.42489
  Beta  occ. eigenvalues --   -0.32370  -0.32169
  Beta virt. eigenvalues --   -0.10713   0.05257   0.05292   0.06619   0.06922
  Beta virt. eigenvalues --    0.07014   0.10119   0.11231   0.11264   0.11375
  Beta virt. eigenvalues --    0.12180   0.12312   0.14676   0.19427   0.19516

 Mulliken charges and spin densities:
               1          2
     1  C    0.187616  -0.051588
     2  C   -0.379022   0.298973
     3  C    0.179997  -0.051851
     4  C   -0.376904   0.311863
     5  C    0.176351  -0.051998
     6  C   -0.370648   0.312344
     7  C   -0.079345  -0.070848
     8  N    0.009065   0.109347
     9  C   -0.080540  -0.070832
    10  N    0.008660   0.108398
    11  C   -0.082903  -0.070982
    12  N    0.019667   0.107370
    13  C   -0.075631  -0.076653
    14  N    0.000495   0.118988
    15  C   -0.076386  -0.075101
    16  N    0.004030   0.115568
    17  C   -0.079836  -0.071319
    18  N    0.015333   0.108322
 Sum of Mulliken charges =  -1.00000   1.00000

 Dipole moment (field-independent basis, Debye):
    X=             42.7848    Y=              8.3129    Z=             -4.9497  Tot=             43.8651
 Quadrupole moment (field-independent basis, Debye-Ang):
   XX=           -552.2146   YY=           -185.3239   ZZ=           -104.3196
   XY=            -73.3545   XZ=             44.8413   YZ=              1.2768

 Normal termination of Gaussian 16 at Fri Oct 11 16:05:57 2024.
