 Gaussian 16, Revision C.01,
 Gaussian 16:  ES64L-G16RevC.01  3-Jul-2019

 ----------------------------------------------------------------------
 # wb97xd def2svp scrf=(smd,solvent=acetonitrile) g09default scf=(xqc,m
 axcycle=64) force guess=read nosymm
 ----------------------------------------------------------------------

 ----------
 Title Card
 ----------
 Symbolic Z-matrix:
 Charge = -2 Multiplicity = 1

                          Input orientation:
 ---------------------------------------------------------------------
 Center     Atomic      Atomic             Coordinates (Angstroms)
 Number     Number       Type             X           Y           Z
 ---------------------------------------------------------------------
      1          6           0       -8.944331   -0.908151    1.108748
      2          6           0       -8.948677    0.475696    1.245194
      3          6           0       -8.248979   -2.115123    0.983735
      4          6           0       -7.037715   -2.812098    0.900570
      5          6           0       -9.643514   -2.112485    0.997393
      6          6           0      -10.856769   -2.811651    0.940489
      7          6           0      -10.171013    1.189138    1.336983
      8          7           0      -11.174240    1.774785    1.419301
      9          6           0       -7.724642    1.189254    1.320579
     10          7           0       -6.688198    1.716049    1.381493
     11          6           0       -5.794437   -2.116746    0.947722
     12          7           0       -4.805794   -1.518326    0.990651
     13          6           0       -7.029596   -4.221123    0.742048
     14          7           0       -7.025392   -5.380719    0.604110
     15          6           0      -10.847064   -4.227977    0.835201
     16          7           0      -10.800124   -5.387720    0.752114
     17          6           0      -12.094179   -2.108068    0.989687
     18          7           0      -13.075230   -1.494913    1.032787
 ---------------------------------------------------------------------

 SCF Done:  E(RwB97XD) =  -785.032086522     A.U. after   12 cycles

 Alpha  occ. eigenvalues --  -14.42850 -14.42844 -14.42814 -14.42758 -14.42718
 Alpha  occ. eigenvalues --  -14.42708 -10.35155 -10.35088 -10.35070 -10.33770
 Alpha  occ. eigenvalues --  -10.33768 -10.33763 -10.33711 -10.33663 -10.33641
 Alpha  occ. eigenvalues --  -10.32837 -10.32831 -10.32777  -1.02782  -0.99145
 Alpha  occ. eigenvalues --   -0.99090  -0.98725  -0.98065  -0.97965  -0.97917
 Alpha  occ. eigenvalues --   -0.88227  -0.88024  -0.85998  -0.68780  -0.68649
 Alpha  occ. eigenvalues --   -0.65120  -0.65028  -0.64813  -0.64064  -0.52313
 Alpha  occ. eigenvalues --   -0.47696  -0.47640  -0.46777  -0.46696  -0.45198
 Alpha  occ. eigenvalues --   -0.45084  -0.45070  -0.44543  -0.44219  -0.44193
 Alpha  occ. eigenvalues --   -0.43810  -0.42846  -0.42265  -0.42209  -0.42050
 Alpha  occ. eigenvalues --   -0.41958  -0.41887  -0.40541  -0.40313  -0.40070
 Alpha  occ. eigenvalues --   -0.31524  -0.31425  -0.23635
 Alpha virt. eigenvalues --    0.07331   0.07411   0.08897   0.09236   0.09407
 Alpha virt. eigenvalues --    0.12677   0.12740   0.12924   0.13153   0.14689
 Alpha virt. eigenvalues --    0.14841   0.16322   0.21058   0.21131   0.24108

 Mulliken charges:
               1
     1  C    0.162211
     2  C   -0.483832
     3  C    0.159624
     4  C   -0.488125
     5  C    0.155104
     6  C   -0.481253
     7  C   -0.127963
     8  N   -0.041551
     9  C   -0.131812
    10  N   -0.041054
    11  C   -0.135559
    12  N   -0.029004
    13  C   -0.128841
    14  N   -0.048145
    15  C   -0.129695
    16  N   -0.044571
    17  C   -0.131859
    18  N   -0.033677
 Sum of Mulliken charges =  -2.00000

 Dipole moment (field-independent basis, Debye):
    X=             85.7141    Y=             16.6360    Z=             -9.8877  Tot=             87.8717
 Quadrupole moment (field-independent basis, Debye-Ang):
   XX=           -964.4976   YY=           -228.3046   ZZ=           -113.6128
   XY=           -147.5194   XZ=             89.2332   YZ=              7.3876

 Normal termination of Gaussian 16 at Fri Oct 11 16:07:10 2024.
