 Gaussian 16, Revision C.01,
 Gaussian 16:  ES64L-G16RevC.01  3-Jul-2019

 ----------------------------------------------------------------------
 # wb97xd def2svp scrf=(smd,solvent=acetonitrile) g09default scf=(xqc,m
 axcycle=64) force guess=read nosymm
 ----------------------------------------------------------------------

 ----------
 Title Card
 ----------
 Symbolic Z-matrix:
 Charge = -1 Multiplicity = 2

                          Input orientation:
 ---------------------------------------------------------------------
 Center     Atomic      Atomic             Coordinates (Angstroms)
 Number     Number       Type             X           Y           Z
 ---------------------------------------------------------------------
      1          6           0       -8.944331   -0.908151    1.108748
      2          6           0       -8.948677    0.475696    1.245194
      3          6           0       -8.248979   -2.115123    0.983735
      4          6           0       -7.037715   -2.812098    0.900570
      5          6           0       -9.643514   -2.112485    0.997393
      6          6           0      -10.856769   -2.811651    0.940489
      7          6           0      -10.171013    1.189138    1.336983
      8          7           0      -11.174240    1.774785    1.419301
      9          6           0       -7.724642    1.189254    1.320579
     10          7           0       -6.688198    1.716049    1.381493
     11          6           0       -5.794437   -2.116746    0.947722
     12          7           0       -4.805794   -1.518326    0.990651
     13          6           0       -7.029596   -4.221123    0.742048
     14          7           0       -7.025392   -5.380719    0.604110
     15          6           0      -10.847064   -4.227977    0.835201
     16          7           0      -10.800124   -5.387720    0.752114
     17          6           0      -12.094179   -2.108068    0.989687
     18          7           0      -13.075230   -1.494913    1.032787
 ---------------------------------------------------------------------

 SCF Done:  E(UwB97XD) =  -784.860035946     A.U. after   17 cycles

 Alpha  occ. eigenvalues --  -14.46039 -14.45976 -14.45970 -14.45957 -14.45869
 Alpha  occ. eigenvalues --  -14.45840 -10.38407 -10.38342 -10.38318 -10.38193
 Alpha  occ. eigenvalues --  -10.38179 -10.38014 -10.36200 -10.36139 -10.36134
 Alpha  occ. eigenvalues --  -10.36131 -10.36064 -10.36033  -1.06403  -1.01992
 Alpha  occ. eigenvalues --   -1.01928  -1.01559  -1.00794  -1.00690  -1.00619
 Alpha  occ. eigenvalues --   -0.92063  -0.91925  -0.90019  -0.72231  -0.72111
 Alpha  occ. eigenvalues --   -0.68681  -0.68580  -0.68406  -0.67667  -0.55581
 Alpha  occ. eigenvalues --   -0.50877  -0.50854  -0.49743  -0.49646  -0.47627
 Alpha  occ. eigenvalues --   -0.47520  -0.47516  -0.47023  -0.46780  -0.46774
 Alpha  occ. eigenvalues --   -0.46585  -0.45199  -0.44894  -0.44823  -0.44672
 Alpha  occ. eigenvalues --   -0.44395  -0.44327  -0.42941  -0.42868  -0.42655
 Alpha  occ. eigenvalues --   -0.35279  -0.35243  -0.28012
 Alpha virt. eigenvalues --    0.04667   0.04733   0.06507   0.06818   0.06977
 Alpha virt. eigenvalues --    0.10212   0.10244   0.10344   0.10630   0.12273
 Alpha virt. eigenvalues --    0.12415   0.14482   0.19293   0.19370   0.20882

  Beta  occ. eigenvalues --  -14.45837 -14.45785 -14.45780 -14.45761 -14.45680
  Beta  occ. eigenvalues --  -14.45654 -10.38444 -10.38380 -10.38357 -10.37835
  Beta  occ. eigenvalues --  -10.37822 -10.37668 -10.36296 -10.36231 -10.36228
  Beta  occ. eigenvalues --  -10.36222 -10.36155 -10.36122  -1.06015  -1.01643
  Beta  occ. eigenvalues --   -1.01578  -1.01209  -1.00462  -1.00352  -1.00291
  Beta  occ. eigenvalues --   -0.91307  -0.91144  -0.89038  -0.72104  -0.71980
  Beta  occ. eigenvalues --   -0.68463  -0.68364  -0.68143  -0.67510  -0.54808
  Beta  occ. eigenvalues --   -0.49660  -0.49590  -0.49533  -0.49509  -0.47266
  Beta  occ. eigenvalues --   -0.47159  -0.47155  -0.46665  -0.46506  -0.46490
  Beta  occ. eigenvalues --   -0.45436  -0.45098  -0.44249  -0.44183  -0.43966
  Beta  occ. eigenvalues --   -0.43898  -0.43849  -0.42796  -0.42732  -0.42511
  Beta  occ. eigenvalues --   -0.32318  -0.32199
  Beta virt. eigenvalues --   -0.10718   0.05365   0.05422   0.06617   0.06918
  Beta virt. eigenvalues --    0.07073   0.10335   0.11232   0.11285   0.11416
  Beta virt. eigenvalues --    0.12321   0.12462   0.14735   0.19495   0.19569

 Mulliken charges and spin densities:
               1          2
     1  C    0.185538  -0.050419
     2  C   -0.378559   0.299140
     3  C    0.182063  -0.051975
     4  C   -0.378684   0.309201
     5  C    0.176480  -0.051998
     6  C   -0.371323   0.310859
     7  C   -0.080800  -0.071641
     8  N    0.011042   0.111223
     9  C   -0.083453  -0.071649
    10  N    0.011469   0.110518
    11  C   -0.086425  -0.070826
    12  N    0.022783   0.107921
    13  C   -0.080375  -0.075212
    14  N    0.006516   0.117036
    15  C   -0.081250  -0.073854
    16  N    0.009289   0.113862
    17  C   -0.082943  -0.071590
    18  N    0.018634   0.109404
 Sum of Mulliken charges =  -1.00000   1.00000

 Dipole moment (field-independent basis, Debye):
    X=             42.7649    Y=              8.2608    Z=             -4.9559  Tot=             43.8365
 Quadrupole moment (field-independent basis, Debye-Ang):
   XX=           -551.8296   YY=           -185.1920   ZZ=           -104.2243
   XY=            -72.8033   XZ=             44.8748   YZ=              1.2202

 Normal termination of Gaussian 16 at Fri Oct 11 16:06:49 2024.
