 Gaussian 16, Revision C.01,
 Gaussian 16:  ES64L-G16RevC.01  3-Jul-2019

 ----------------------------------------------------------------------
 # wb97xd def2svp scrf=(smd,solvent=acetonitrile) g09default scf=(xqc,m
 axcycle=64) force guess=read nosymm
 ----------------------------------------------------------------------

 ----------
 Title Card
 ----------
 Symbolic Z-matrix:
 Charge = -2 Multiplicity = 1

                          Input orientation:
 ---------------------------------------------------------------------
 Center     Atomic      Atomic             Coordinates (Angstroms)
 Number     Number       Type             X           Y           Z
 ---------------------------------------------------------------------
      1          6           0       -8.946423   -0.916426    1.106406
      2          6           0       -8.950362    0.469420    1.244383
      3          6           0       -8.251748   -2.113942    0.985007
      4          6           0       -7.044596   -2.808226    0.900053
      5          6           0       -9.644035   -2.112321    0.997168
      6          6           0      -10.850163   -2.807262    0.941051
      7          6           0      -10.174185    1.180207    1.336218
      8          7           0      -11.167605    1.778737    1.420233
      9          6           0       -7.720663    1.172988    1.319716
     10          7           0       -6.694619    1.716807    1.381988
     11          6           0       -5.810167   -2.110111    0.948427
     12          7           0       -4.805675   -1.525356    0.989711
     13          6           0       -7.038409   -4.218492    0.741702
     14          7           0       -7.023985   -5.372473    0.604644
     15          6           0      -10.835248   -4.222998    0.836093
     16          7           0      -10.796774   -5.381805    0.754368
     17          6           0      -12.081363   -2.102306    0.990573
     18          7           0      -13.073873   -1.496616    1.031064
 ---------------------------------------------------------------------

 SCF Done:  E(RwB97XD) =  -785.032565977     A.U. after   12 cycles

 Alpha  occ. eigenvalues --  -14.42816 -14.42774 -14.42771 -14.42769 -14.42762
 Alpha  occ. eigenvalues --  -14.42748 -10.34972 -10.34899 -10.34867 -10.33759
 Alpha  occ. eigenvalues --  -10.33712 -10.33706 -10.33704 -10.33697 -10.33683
 Alpha  occ. eigenvalues --  -10.32735 -10.32724 -10.32670  -1.03087  -0.99083
 Alpha  occ. eigenvalues --   -0.99081  -0.98705  -0.98017  -0.97997  -0.97925
 Alpha  occ. eigenvalues --   -0.88210  -0.88183  -0.86096  -0.68781  -0.68725
 Alpha  occ. eigenvalues --   -0.65212  -0.65070  -0.64951  -0.64111  -0.52468
 Alpha  occ. eigenvalues --   -0.47684  -0.47680  -0.46794  -0.46720  -0.45192
 Alpha  occ. eigenvalues --   -0.45082  -0.45069  -0.44540  -0.44200  -0.44167
 Alpha  occ. eigenvalues --   -0.43839  -0.42803  -0.42234  -0.42211  -0.42037
 Alpha  occ. eigenvalues --   -0.41959  -0.41924  -0.40531  -0.40160  -0.40139
 Alpha  occ. eigenvalues --   -0.31477  -0.31463  -0.23631
 Alpha virt. eigenvalues --    0.07478   0.07559   0.08822   0.09267   0.09347
 Alpha virt. eigenvalues --    0.12646   0.12694   0.13108   0.13125   0.14801
 Alpha virt. eigenvalues --    0.14929   0.16374   0.21109   0.21152   0.24196

 Mulliken charges:
               1
     1  C    0.156360
     2  C   -0.483254
     3  C    0.161692
     4  C   -0.487649
     5  C    0.157535
     6  C   -0.479067
     7  C   -0.132639
     8  N   -0.036183
     9  C   -0.137411
    10  N   -0.036622
    11  C   -0.135804
    12  N   -0.035000
    13  C   -0.134801
    14  N   -0.035820
    15  C   -0.133567
    16  N   -0.038498
    17  C   -0.132016
    18  N   -0.037256
 Sum of Mulliken charges =  -2.00000

 Dipole moment (field-independent basis, Debye):
    X=             85.6570    Y=             16.4336    Z=             -9.9053  Tot=             87.7798
 Quadrupole moment (field-independent basis, Debye-Ang):
   XX=           -963.7654   YY=           -227.4472   ZZ=           -113.5705
   XY=           -145.5847   XZ=             89.3322   YZ=              7.2229

 Normal termination of Gaussian 16 at Fri Oct 11 16:08:01 2024.
