 Gaussian 16, Revision C.01,
 Gaussian 16:  ES64L-G16RevC.01  3-Jul-2019

 ----------------------------------------------------------------------
 # wb97xd def2svp scrf=(smd,solvent=acetonitrile) g09default scf=(xqc,m
 axcycle=64) force guess=read nosymm
 ----------------------------------------------------------------------

 ----------
 Title Card
 ----------
 Symbolic Z-matrix:
 Charge = -1 Multiplicity = 2

                          Input orientation:
 ---------------------------------------------------------------------
 Center     Atomic      Atomic             Coordinates (Angstroms)
 Number     Number       Type             X           Y           Z
 ---------------------------------------------------------------------
      1          6           0       -8.946423   -0.916426    1.106406
      2          6           0       -8.950362    0.469420    1.244383
      3          6           0       -8.251748   -2.113942    0.985007
      4          6           0       -7.044596   -2.808226    0.900053
      5          6           0       -9.644035   -2.112321    0.997168
      6          6           0      -10.850163   -2.807262    0.941051
      7          6           0      -10.174185    1.180207    1.336218
      8          7           0      -11.167605    1.778737    1.420233
      9          6           0       -7.720663    1.172988    1.319716
     10          7           0       -6.694619    1.716807    1.381988
     11          6           0       -5.810167   -2.110111    0.948427
     12          7           0       -4.805675   -1.525356    0.989711
     13          6           0       -7.038409   -4.218492    0.741702
     14          7           0       -7.023985   -5.372473    0.604644
     15          6           0      -10.835248   -4.222998    0.836093
     16          7           0      -10.796774   -5.381805    0.754368
     17          6           0      -12.081363   -2.102306    0.990573
     18          7           0      -13.073873   -1.496616    1.031064
 ---------------------------------------------------------------------

 SCF Done:  E(UwB97XD) =  -784.860513673     A.U. after   17 cycles

 Alpha  occ. eigenvalues --  -14.45972 -14.45949 -14.45947 -14.45935 -14.45922
 Alpha  occ. eigenvalues --  -14.45918 -10.38241 -10.38170 -10.38139 -10.38052
 Alpha  occ. eigenvalues --  -10.38030 -10.37998 -10.36152 -10.36118 -10.36113
 Alpha  occ. eigenvalues --  -10.36103 -10.36097 -10.36090  -1.06735  -1.01947
 Alpha  occ. eigenvalues --   -1.01932  -1.01557  -1.00723  -1.00717  -1.00644
 Alpha  occ. eigenvalues --   -0.92080  -0.92055  -0.90117  -0.72251  -0.72192
 Alpha  occ. eigenvalues --   -0.68778  -0.68640  -0.68543  -0.67721  -0.55750
 Alpha  occ. eigenvalues --   -0.50895  -0.50879  -0.49778  -0.49690  -0.47629
 Alpha  occ. eigenvalues --   -0.47521  -0.47517  -0.47023  -0.46776  -0.46754
 Alpha  occ. eigenvalues --   -0.46628  -0.45164  -0.44848  -0.44839  -0.44674
 Alpha  occ. eigenvalues --   -0.44389  -0.44358  -0.42940  -0.42735  -0.42721
 Alpha  occ. eigenvalues --   -0.35262  -0.35256  -0.28008
 Alpha virt. eigenvalues --    0.04795   0.04877   0.06423   0.06828   0.06923
 Alpha virt. eigenvalues --    0.10165   0.10204   0.10534   0.10587   0.12374
 Alpha virt. eigenvalues --    0.12511   0.14541   0.19358   0.19400   0.20963

  Beta  occ. eigenvalues --  -14.45780 -14.45756 -14.45753 -14.45742 -14.45730
  Beta  occ. eigenvalues --  -14.45727 -10.38277 -10.38206 -10.38175 -10.37700
  Beta  occ. eigenvalues --  -10.37681 -10.37646 -10.36244 -10.36211 -10.36205
  Beta  occ. eigenvalues --  -10.36195 -10.36189 -10.36182  -1.06340  -1.01593
  Beta  occ. eigenvalues --   -1.01581  -1.01202  -1.00393  -1.00384  -1.00314
  Beta  occ. eigenvalues --   -0.91317  -0.91292  -0.89142  -0.72116  -0.72054
  Beta  occ. eigenvalues --   -0.68565  -0.68427  -0.68281  -0.67562  -0.54980
  Beta  occ. eigenvalues --   -0.49670  -0.49618  -0.49598  -0.49528  -0.47269
  Beta  occ. eigenvalues --   -0.47161  -0.47157  -0.46664  -0.46492  -0.46472
  Beta  occ. eigenvalues --   -0.45465  -0.45061  -0.44244  -0.44214  -0.43918
  Beta  occ. eigenvalues --   -0.43897  -0.43870  -0.42795  -0.42594  -0.42582
  Beta  occ. eigenvalues --   -0.32265  -0.32241
  Beta virt. eigenvalues --   -0.10722   0.05488   0.05566   0.06535   0.06929
  Beta virt. eigenvalues --    0.07019   0.10534   0.11200   0.11243   0.11364
  Beta virt. eigenvalues --    0.12420   0.12558   0.14791   0.19551   0.19596

 Mulliken charges and spin densities:
               1          2
     1  C    0.178623  -0.050887
     2  C   -0.375351   0.306098
     3  C    0.183589  -0.051494
     4  C   -0.379183   0.306215
     5  C    0.178544  -0.050833
     6  C   -0.371295   0.304289
     7  C   -0.084034  -0.072729
     8  N    0.017002   0.112694
     9  C   -0.088003  -0.072687
    10  N    0.016556   0.112066
    11  C   -0.086606  -0.072880
    12  N    0.018166   0.112487
    13  C   -0.086218  -0.072279
    14  N    0.017270   0.111930
    15  C   -0.085543  -0.071623
    16  N    0.014265   0.110444
    17  C   -0.083393  -0.072378
    18  N    0.015612   0.111566
 Sum of Mulliken charges =  -1.00000   1.00000

 Dipole moment (field-independent basis, Debye):
    X=             42.7429    Y=              8.2206    Z=             -4.9590  Tot=             43.8078
 Quadrupole moment (field-independent basis, Debye-Ang):
   XX=           -551.7111   YY=           -184.9846   ZZ=           -104.1563
   XY=            -72.3952   XZ=             44.8778   YZ=              1.1903

 Normal termination of Gaussian 16 at Fri Oct 11 16:07:39 2024.
