 Gaussian 16, Revision C.01,
 Gaussian 16:  ES64L-G16RevC.01  3-Jul-2019

 ----------------------------------------------------------------------
 # wb97xd def2svp scrf=(smd,solvent=acetonitrile) g09default scf=(xqc,m
 axcycle=64) force guess=read nosymm
 ----------------------------------------------------------------------

 ----------
 Title Card
 ----------
 Symbolic Z-matrix:
 Charge = -2 Multiplicity = 1

                          Input orientation:
 ---------------------------------------------------------------------
 Center     Atomic      Atomic             Coordinates (Angstroms)
 Number     Number       Type             X           Y           Z
 ---------------------------------------------------------------------
      1          6           0       -8.946650   -0.916086    1.106446
      2          6           0       -8.951048    0.472520    1.245136
      3          6           0       -8.252858   -2.113753    0.985462
      4          6           0       -7.042518   -2.810073    0.899528
      5          6           0       -9.644028   -2.114200    0.996961
      6          6           0      -10.852633   -2.809986    0.940938
      7          6           0      -10.174207    1.188148    1.337653
      8          7           0      -11.170097    1.778596    1.420512
      9          6           0       -7.718232    1.175309    1.320595
     10          7           0       -6.693188    1.717811    1.382320
     11          6           0       -5.808534   -2.111017    0.948494
     12          7           0       -4.803348   -1.524293    0.988829
     13          6           0       -7.033858   -4.220865    0.739904
     14          7           0       -7.024671   -5.374780    0.603211
     15          6           0      -10.838729   -4.223702    0.836627
     16          7           0      -10.796079   -5.384255    0.755811
     17          6           0      -12.082897   -2.103238    0.990542
     18          7           0      -13.076320   -1.496315    1.029836
 ---------------------------------------------------------------------

 SCF Done:  E(RwB97XD) =  -785.032738300     A.U. after   11 cycles

 Alpha  occ. eigenvalues --  -14.42852 -14.42798 -14.42787 -14.42752 -14.42747
 Alpha  occ. eigenvalues --  -14.42745 -10.35041 -10.34969 -10.34949 -10.33799
 Alpha  occ. eigenvalues --  -10.33736 -10.33734 -10.33692 -10.33688 -10.33684
 Alpha  occ. eigenvalues --  -10.32766 -10.32759 -10.32750  -1.03095  -0.99112
 Alpha  occ. eigenvalues --   -0.99041  -0.98701  -0.98063  -0.97963  -0.97903
 Alpha  occ. eigenvalues --   -0.88178  -0.88117  -0.86073  -0.68744  -0.68707
 Alpha  occ. eigenvalues --   -0.65212  -0.65020  -0.64916  -0.64074  -0.52443
 Alpha  occ. eigenvalues --   -0.47677  -0.47655  -0.46799  -0.46755  -0.45194
 Alpha  occ. eigenvalues --   -0.45085  -0.45069  -0.44540  -0.44210  -0.44191
 Alpha  occ. eigenvalues --   -0.43853  -0.42802  -0.42250  -0.42197  -0.42031
 Alpha  occ. eigenvalues --   -0.41951  -0.41920  -0.40534  -0.40189  -0.40124
 Alpha  occ. eigenvalues --   -0.31465  -0.31429  -0.23668
 Alpha virt. eigenvalues --    0.07449   0.07504   0.08828   0.09266   0.09326
 Alpha virt. eigenvalues --    0.12609   0.12713   0.13081   0.13116   0.14762
 Alpha virt. eigenvalues --    0.14925   0.16321   0.21089   0.21145   0.24164

 Mulliken charges:
               1
     1  C    0.157151
     2  C   -0.484710
     3  C    0.160338
     4  C   -0.487121
     5  C    0.155986
     6  C   -0.478280
     7  C   -0.132287
     8  N   -0.033807
     9  C   -0.136713
    10  N   -0.036549
    11  C   -0.133678
    12  N   -0.038875
    13  C   -0.133711
    14  N   -0.036006
    15  C   -0.131420
    16  N   -0.041223
    17  C   -0.129585
    18  N   -0.039510
 Sum of Mulliken charges =  -2.00000

 Dipole moment (field-independent basis, Debye):
    X=             85.6357    Y=             16.4926    Z=             -9.8956  Tot=             87.7690
 Quadrupole moment (field-independent basis, Debye-Ang):
   XX=           -963.5541   YY=           -227.6356   ZZ=           -113.5797
   XY=           -146.1121   XZ=             89.2277   YZ=              7.2797

 Normal termination of Gaussian 16 at Fri Oct 11 16:08:50 2024.
