 Gaussian 16, Revision C.01,
 Gaussian 16:  ES64L-G16RevC.01  3-Jul-2019

 ----------------------------------------------------------------------
 # wb97xd def2svp scrf=(smd,solvent=acetonitrile) g09default scf=(xqc,m
 axcycle=64) force guess=read nosymm
 ----------------------------------------------------------------------

 ----------
 Title Card
 ----------
 Symbolic Z-matrix:
 Charge = -1 Multiplicity = 2

                          Input orientation:
 ---------------------------------------------------------------------
 Center     Atomic      Atomic             Coordinates (Angstroms)
 Number     Number       Type             X           Y           Z
 ---------------------------------------------------------------------
      1          6           0       -8.946650   -0.916086    1.106446
      2          6           0       -8.951048    0.472520    1.245136
      3          6           0       -8.252858   -2.113753    0.985462
      4          6           0       -7.042518   -2.810073    0.899528
      5          6           0       -9.644028   -2.114200    0.996961
      6          6           0      -10.852633   -2.809986    0.940938
      7          6           0      -10.174207    1.188148    1.337653
      8          7           0      -11.170097    1.778596    1.420512
      9          6           0       -7.718232    1.175309    1.320595
     10          7           0       -6.693188    1.717811    1.382320
     11          6           0       -5.808534   -2.111017    0.948494
     12          7           0       -4.803348   -1.524293    0.988829
     13          6           0       -7.033858   -4.220865    0.739904
     14          7           0       -7.024671   -5.374780    0.603211
     15          6           0      -10.838729   -4.223702    0.836627
     16          7           0      -10.796079   -5.384255    0.755811
     17          6           0      -12.082897   -2.103238    0.990542
     18          7           0      -13.076320   -1.496315    1.029836
 ---------------------------------------------------------------------

 SCF Done:  E(UwB97XD) =  -784.860293811     A.U. after   16 cycles

 Alpha  occ. eigenvalues --  -14.46003 -14.45984 -14.45953 -14.45928 -14.45913
 Alpha  occ. eigenvalues --  -14.45901 -10.38298 -10.38227 -10.38205 -10.38106
 Alpha  occ. eigenvalues --  -10.38072 -10.38045 -10.36186 -10.36154 -10.36126
 Alpha  occ. eigenvalues --  -10.36102 -10.36090 -10.36081  -1.06728  -1.01964
 Alpha  occ. eigenvalues --   -1.01900  -1.01550  -1.00770  -1.00683  -1.00619
 Alpha  occ. eigenvalues --   -0.92034  -0.92002  -0.90091  -0.72207  -0.72165
 Alpha  occ. eigenvalues --   -0.68770  -0.68590  -0.68505  -0.67676  -0.55713
 Alpha  occ. eigenvalues --   -0.50875  -0.50862  -0.49778  -0.49720  -0.47630
 Alpha  occ. eigenvalues --   -0.47525  -0.47516  -0.47023  -0.46780  -0.46773
 Alpha  occ. eigenvalues --   -0.46637  -0.45162  -0.44867  -0.44820  -0.44668
 Alpha  occ. eigenvalues --   -0.44384  -0.44348  -0.42943  -0.42755  -0.42706
 Alpha  occ. eigenvalues --   -0.35251  -0.35224  -0.28047
 Alpha virt. eigenvalues --    0.04774   0.04834   0.06428   0.06833   0.06903
 Alpha virt. eigenvalues --    0.10131   0.10223   0.10499   0.10591   0.12334
 Alpha virt. eigenvalues --    0.12504   0.14490   0.19332   0.19392   0.20933

  Beta  occ. eigenvalues --  -14.45810 -14.45787 -14.45761 -14.45735 -14.45721
  Beta  occ. eigenvalues --  -14.45711 -10.38335 -10.38265 -10.38243 -10.37751
  Beta  occ. eigenvalues --  -10.37719 -10.37696 -10.36278 -10.36248 -10.36218
  Beta  occ. eigenvalues --  -10.36195 -10.36182 -10.36172  -1.06337  -1.01612
  Beta  occ. eigenvalues --   -1.01547  -1.01196  -1.00440  -1.00348  -1.00288
  Beta  occ. eigenvalues --   -0.91273  -0.91230  -0.89114  -0.72075  -0.72031
  Beta  occ. eigenvalues --   -0.68556  -0.68376  -0.68245  -0.67519  -0.54950
  Beta  occ. eigenvalues --   -0.49662  -0.49642  -0.49577  -0.49529  -0.47270
  Beta  occ. eigenvalues --   -0.47163  -0.47157  -0.46663  -0.46498  -0.46487
  Beta  occ. eigenvalues --   -0.45477  -0.45059  -0.44239  -0.44204  -0.43942
  Beta  occ. eigenvalues --   -0.43877  -0.43853  -0.42798  -0.42614  -0.42566
  Beta  occ. eigenvalues --   -0.32238  -0.32195
  Beta virt. eigenvalues --   -0.10763   0.05457   0.05512   0.06540   0.06932
  Beta virt. eigenvalues --    0.06999   0.10499   0.11158   0.11254   0.11382
  Beta virt. eigenvalues --    0.12379   0.12550   0.14744   0.19530   0.19589

 Mulliken charges and spin densities:
               1          2
     1  C    0.178998  -0.052581
     2  C   -0.376249   0.307251
     3  C    0.182044  -0.051840
     4  C   -0.377853   0.308322
     5  C    0.177338  -0.050625
     6  C   -0.371035   0.302978
     7  C   -0.083844  -0.072234
     8  N    0.018864   0.111371
     9  C   -0.087766  -0.072087
    10  N    0.016200   0.110777
    11  C   -0.084458  -0.073943
    12  N    0.014855   0.114171
    13  C   -0.084919  -0.072822
    14  N    0.017223   0.112462
    15  C   -0.083432  -0.072288
    16  N    0.011836   0.111816
    17  C   -0.081180  -0.072534
    18  N    0.013380   0.111806
 Sum of Mulliken charges =  -1.00000   1.00000

 Dipole moment (field-independent basis, Debye):
    X=             42.7485    Y=              8.2478    Z=             -4.9530  Tot=             43.8177
 Quadrupole moment (field-independent basis, Debye-Ang):
   XX=           -551.9131   YY=           -185.0527   ZZ=           -104.1728
   XY=            -72.6946   XZ=             44.8299   YZ=              1.2229

 Normal termination of Gaussian 16 at Fri Oct 11 16:08:29 2024.
