 Gaussian 16, Revision C.01,
 Gaussian 16:  ES64L-G16RevC.01  3-Jul-2019

 ----------------------------------------------------------------------
 # wb97xd def2svp scrf=(smd,solvent=acetonitrile) g09default scf=(xqc,m
 axcycle=64) force guess=read nosymm
 ----------------------------------------------------------------------

 ----------
 Title Card
 ----------
 Symbolic Z-matrix:
 Charge = -2 Multiplicity = 1

                          Input orientation:
 ---------------------------------------------------------------------
 Center     Atomic      Atomic             Coordinates (Angstroms)
 Number     Number       Type             X           Y           Z
 ---------------------------------------------------------------------
      1          6           0       -8.949434   -0.917243    1.106028
      2          6           0       -8.950729    0.470495    1.245147
      3          6           0       -8.252555   -2.115152    0.985260
      4          6           0       -7.045613   -2.808344    0.899350
      5          6           0       -9.643396   -2.113679    0.996964
      6          6           0      -10.850417   -2.807965    0.941289
      7          6           0      -10.171106    1.188292    1.338407
      8          7           0      -11.168981    1.779858    1.420797
      9          6           0       -7.719412    1.170255    1.320441
     10          7           0       -6.695547    1.717732    1.382647
     11          6           0       -5.811563   -2.110254    0.948651
     12          7           0       -4.806497   -1.527235    0.988079
     13          6           0       -7.033874   -4.218327    0.739133
     14          7           0       -7.024710   -5.372927    0.602922
     15          6           0      -10.837489   -4.222994    0.837415
     16          7           0      -10.795039   -5.381221    0.757250
     17          6           0      -12.080551   -2.102825    0.990439
     18          7           0      -13.072980   -1.498645    1.028587
 ---------------------------------------------------------------------

 SCF Done:  E(RwB97XD) =  -785.032673766     A.U. after   11 cycles

 Alpha  occ. eigenvalues --  -14.42781 -14.42777 -14.42770 -14.42764 -14.42744
 Alpha  occ. eigenvalues --  -14.42742 -10.34990 -10.34913 -10.34880 -10.33720
 Alpha  occ. eigenvalues --  -10.33719 -10.33701 -10.33697 -10.33677 -10.33675
 Alpha  occ. eigenvalues --  -10.32733 -10.32698 -10.32692  -1.03118  -0.99096
 Alpha  occ. eigenvalues --   -0.99083  -0.98716  -0.98031  -0.97998  -0.97928
 Alpha  occ. eigenvalues --   -0.88200  -0.88186  -0.86108  -0.68804  -0.68726
 Alpha  occ. eigenvalues --   -0.65217  -0.65044  -0.64933  -0.64134  -0.52477
 Alpha  occ. eigenvalues --   -0.47693  -0.47683  -0.46810  -0.46726  -0.45186
 Alpha  occ. eigenvalues --   -0.45071  -0.45068  -0.44535  -0.44214  -0.44168
 Alpha  occ. eigenvalues --   -0.43856  -0.42813  -0.42239  -0.42209  -0.42038
 Alpha  occ. eigenvalues --   -0.41950  -0.41918  -0.40528  -0.40169  -0.40156
 Alpha  occ. eigenvalues --   -0.31476  -0.31449  -0.23642
 Alpha virt. eigenvalues --    0.07456   0.07563   0.08842   0.09274   0.09375
 Alpha virt. eigenvalues --    0.12678   0.12710   0.13127   0.13135   0.14830
 Alpha virt. eigenvalues --    0.14960   0.16329   0.21095   0.21158   0.24203

 Mulliken charges:
               1
     1  C    0.157867
     2  C   -0.484192
     3  C    0.164311
     4  C   -0.488160
     5  C    0.155620
     6  C   -0.479723
     7  C   -0.132326
     8  N   -0.035903
     9  C   -0.136507
    10  N   -0.037945
    11  C   -0.135578
    12  N   -0.035544
    13  C   -0.134487
    14  N   -0.035882
    15  C   -0.134522
    16  N   -0.037961
    17  C   -0.132719
    18  N   -0.036348
 Sum of Mulliken charges =  -2.00000

 Dipole moment (field-independent basis, Debye):
    X=             85.6775    Y=             16.4316    Z=             -9.9008  Tot=             87.7990
 Quadrupole moment (field-independent basis, Debye-Ang):
   XX=           -964.1050   YY=           -227.4797   ZZ=           -113.5534
   XY=           -145.6238   XZ=             89.3151   YZ=              7.2212

 Normal termination of Gaussian 16 at Fri Oct 11 16:09:39 2024.
