 Gaussian 16, Revision C.01,
 Gaussian 16:  ES64L-G16RevC.01  3-Jul-2019

 ----------------------------------------------------------------------
 # wb97xd def2svp scrf=(smd,solvent=acetonitrile) g09default scf=(xqc,m
 axcycle=64) force guess=read nosymm
 ----------------------------------------------------------------------

 ----------
 Title Card
 ----------
 Symbolic Z-matrix:
 Charge = -1 Multiplicity = 2

                          Input orientation:
 ---------------------------------------------------------------------
 Center     Atomic      Atomic             Coordinates (Angstroms)
 Number     Number       Type             X           Y           Z
 ---------------------------------------------------------------------
      1          6           0       -8.949434   -0.917243    1.106028
      2          6           0       -8.950729    0.470495    1.245147
      3          6           0       -8.252555   -2.115152    0.985260
      4          6           0       -7.045613   -2.808344    0.899350
      5          6           0       -9.643396   -2.113679    0.996964
      6          6           0      -10.850417   -2.807965    0.941289
      7          6           0      -10.171106    1.188292    1.338407
      8          7           0      -11.168981    1.779858    1.420797
      9          6           0       -7.719412    1.170255    1.320441
     10          7           0       -6.695547    1.717732    1.382647
     11          6           0       -5.811563   -2.110254    0.948651
     12          7           0       -4.806497   -1.527235    0.988079
     13          6           0       -7.033874   -4.218327    0.739133
     14          7           0       -7.024710   -5.372927    0.602922
     15          6           0      -10.837489   -4.222994    0.837415
     16          7           0      -10.795039   -5.381221    0.757250
     17          6           0      -12.080551   -2.102825    0.990439
     18          7           0      -13.072980   -1.498645    1.028587
 ---------------------------------------------------------------------

 SCF Done:  E(UwB97XD) =  -784.860505625     A.U. after   16 cycles

 Alpha  occ. eigenvalues --  -14.45956 -14.45947 -14.45935 -14.45928 -14.45918
 Alpha  occ. eigenvalues --  -14.45903 -10.38253 -10.38180 -10.38148 -10.38043
 Alpha  occ. eigenvalues --  -10.38023 -10.38010 -10.36127 -10.36120 -10.36101
 Alpha  occ. eigenvalues --  -10.36096 -10.36084 -10.36075  -1.06762  -1.01951
 Alpha  occ. eigenvalues --   -1.01944  -1.01569  -1.00743  -1.00714  -1.00648
 Alpha  occ. eigenvalues --   -0.92070  -0.92059  -0.90127  -0.72269  -0.72193
 Alpha  occ. eigenvalues --   -0.68787  -0.68611  -0.68522  -0.67742  -0.55756
 Alpha  occ. eigenvalues --   -0.50895  -0.50892  -0.49794  -0.49695  -0.47623
 Alpha  occ. eigenvalues --   -0.47515  -0.47512  -0.47019  -0.46786  -0.46752
 Alpha  occ. eigenvalues --   -0.46644  -0.45175  -0.44859  -0.44834  -0.44676
 Alpha  occ. eigenvalues --   -0.44383  -0.44355  -0.42940  -0.42744  -0.42734
 Alpha  occ. eigenvalues --   -0.35261  -0.35244  -0.28019
 Alpha virt. eigenvalues --    0.04778   0.04882   0.06444   0.06840   0.06946
 Alpha virt. eigenvalues --    0.10191   0.10225   0.10542   0.10606   0.12397
 Alpha virt. eigenvalues --    0.12539   0.14507   0.19349   0.19407   0.20969

  Beta  occ. eigenvalues --  -14.45762 -14.45754 -14.45742 -14.45736 -14.45725
  Beta  occ. eigenvalues --  -14.45712 -10.38290 -10.38217 -10.38184 -10.37692
  Beta  occ. eigenvalues --  -10.37671 -10.37659 -10.36219 -10.36212 -10.36193
  Beta  occ. eigenvalues --  -10.36188 -10.36177 -10.36167  -1.06368  -1.01599
  Beta  occ. eigenvalues --   -1.01591  -1.01214  -1.00412  -1.00381  -1.00317
  Beta  occ. eigenvalues --   -0.91307  -0.91294  -0.89152  -0.72137  -0.72057
  Beta  occ. eigenvalues --   -0.68572  -0.68398  -0.68260  -0.67584  -0.54989
  Beta  occ. eigenvalues --   -0.49700  -0.49609  -0.49595  -0.49546  -0.47263
  Beta  occ. eigenvalues --   -0.47155  -0.47152  -0.46659  -0.46501  -0.46471
  Beta  occ. eigenvalues --   -0.45482  -0.45071  -0.44238  -0.44211  -0.43928
  Beta  occ. eigenvalues --   -0.43893  -0.43867  -0.42794  -0.42603  -0.42593
  Beta  occ. eigenvalues --   -0.32261  -0.32222
  Beta virt. eigenvalues --   -0.10735   0.05468   0.05568   0.06556   0.06939
  Beta virt. eigenvalues --    0.07043   0.10541   0.11230   0.11261   0.11383
  Beta virt. eigenvalues --    0.12443   0.12583   0.14760   0.19543   0.19602

 Mulliken charges and spin densities:
               1          2
     1  C    0.180143  -0.051077
     2  C   -0.376117   0.306321
     3  C    0.186148  -0.051702
     4  C   -0.380180   0.304917
     5  C    0.176641  -0.051081
     6  C   -0.371551   0.305649
     7  C   -0.083469  -0.072918
     8  N    0.017261   0.112777
     9  C   -0.087467  -0.072675
    10  N    0.015298   0.112264
    11  C   -0.086779  -0.072388
    12  N    0.017416   0.111919
    13  C   -0.085924  -0.072312
    14  N    0.017084   0.111838
    15  C   -0.086117  -0.071954
    16  N    0.014960   0.111043
    17  C   -0.083947  -0.072571
    18  N    0.016601   0.111951
 Sum of Mulliken charges =  -1.00000   1.00000

 Dipole moment (field-independent basis, Debye):
    X=             42.7351    Y=              8.2183    Z=             -4.9544  Tot=             43.7993
 Quadrupole moment (field-independent basis, Debye-Ang):
   XX=           -551.5542   YY=           -184.9875   ZZ=           -104.1390
   XY=            -72.3553   XZ=             44.8311   YZ=              1.1929

 Normal termination of Gaussian 16 at Fri Oct 11 16:09:19 2024.
