 Gaussian 16, Revision C.01,
 Gaussian 16:  ES64L-G16RevC.01  3-Jul-2019

 ----------------------------------------------------------------------
 # wb97xd def2svp scrf=(smd,solvent=acetonitrile) g09default scf=(xqc,m
 axcycle=64) force guess=read nosymm
 ----------------------------------------------------------------------

 ----------
 Title Card
 ----------
 Symbolic Z-matrix:
 Charge = -2 Multiplicity = 1

                          Input orientation:
 ---------------------------------------------------------------------
 Center     Atomic      Atomic             Coordinates (Angstroms)
 Number     Number       Type             X           Y           Z
 ---------------------------------------------------------------------
      1          6           0       -8.951415   -0.917088    1.105893
      2          6           0       -8.951137    0.470926    1.245879
      3          6           0       -8.253588   -2.115628    0.985477
      4          6           0       -7.046294   -2.808579    0.898699
      5          6           0       -9.643681   -2.115257    0.996747
      6          6           0      -10.850598   -2.808644    0.941530
      7          6           0      -10.169088    1.194067    1.340089
      8          7           0      -11.169750    1.781375    1.421455
      9          6           0       -7.717898    1.167452    1.321111
     10          7           0       -6.695985    1.718791    1.383308
     11          6           0       -5.812764   -2.109413    0.948689
     12          7           0       -4.806707   -1.529001    0.986658
     13          6           0       -7.031088   -4.218606    0.736887
     14          7           0       -7.025120   -5.373140    0.601189
     15          6           0      -10.838622   -4.223272    0.838629
     16          7           0      -10.793418   -5.381443    0.759924
     17          6           0      -12.079800   -2.102616    0.990288
     18          7           0      -13.072940   -1.500101    1.026351
 ---------------------------------------------------------------------

 SCF Done:  E(RwB97XD) =  -785.032662753     A.U. after   10 cycles

 Alpha  occ. eigenvalues --  -14.42795 -14.42769 -14.42768 -14.42748 -14.42743
 Alpha  occ. eigenvalues --  -14.42737 -10.34997 -10.34926 -10.34879 -10.33739
 Alpha  occ. eigenvalues --  -10.33706 -10.33702 -10.33678 -10.33676 -10.33668
 Alpha  occ. eigenvalues --  -10.32733 -10.32719 -10.32676  -1.03103  -0.99103
 Alpha  occ. eigenvalues --   -0.99084  -0.98718  -0.98036  -0.98002  -0.97932
 Alpha  occ. eigenvalues --   -0.88208  -0.88177  -0.86105  -0.68804  -0.68730
 Alpha  occ. eigenvalues --   -0.65227  -0.65025  -0.64920  -0.64138  -0.52471
 Alpha  occ. eigenvalues --   -0.47698  -0.47682  -0.46808  -0.46724  -0.45185
 Alpha  occ. eigenvalues --   -0.45071  -0.45067  -0.44534  -0.44220  -0.44164
 Alpha  occ. eigenvalues --   -0.43856  -0.42818  -0.42242  -0.42211  -0.42041
 Alpha  occ. eigenvalues --   -0.41948  -0.41917  -0.40530  -0.40184  -0.40154
 Alpha  occ. eigenvalues --   -0.31474  -0.31455  -0.23639
 Alpha virt. eigenvalues --    0.07446   0.07562   0.08849   0.09278   0.09382
 Alpha virt. eigenvalues --    0.12682   0.12723   0.13128   0.13141   0.14841
 Alpha virt. eigenvalues --    0.14977   0.16311   0.21085   0.21163   0.24201

 Mulliken charges:
               1
     1  C    0.159252
     2  C   -0.484578
     3  C    0.164943
     4  C   -0.488453
     5  C    0.154358
     6  C   -0.479964
     7  C   -0.132040
     8  N   -0.035491
     9  C   -0.135823
    10  N   -0.039097
    11  C   -0.135718
    12  N   -0.035884
    13  C   -0.134665
    14  N   -0.035290
    15  C   -0.134966
    16  N   -0.037729
    17  C   -0.132933
    18  N   -0.035922
 Sum of Mulliken charges =  -2.00000

 Dipole moment (field-independent basis, Debye):
    X=             85.6719    Y=             16.4405    Z=             -9.8962  Tot=             87.7947
 Quadrupole moment (field-independent basis, Debye-Ang):
   XX=           -963.9957   YY=           -227.5249   ZZ=           -113.5446
   XY=           -145.6917   XZ=             89.2734   YZ=              7.2301

 Normal termination of Gaussian 16 at Fri Oct 11 16:10:24 2024.
