 Gaussian 16, Revision C.01,
 Gaussian 16:  ES64L-G16RevC.01  3-Jul-2019

 ----------------------------------------------------------------------
 # wb97xd def2svp scrf=(smd,solvent=acetonitrile) g09default scf=(xqc,m
 axcycle=64) force guess=read nosymm
 ----------------------------------------------------------------------

 ----------
 Title Card
 ----------
 Symbolic Z-matrix:
 Charge = -1 Multiplicity = 2

                          Input orientation:
 ---------------------------------------------------------------------
 Center     Atomic      Atomic             Coordinates (Angstroms)
 Number     Number       Type             X           Y           Z
 ---------------------------------------------------------------------
      1          6           0       -8.951415   -0.917088    1.105893
      2          6           0       -8.951137    0.470926    1.245879
      3          6           0       -8.253588   -2.115628    0.985477
      4          6           0       -7.046294   -2.808579    0.898699
      5          6           0       -9.643681   -2.115257    0.996747
      6          6           0      -10.850598   -2.808644    0.941530
      7          6           0      -10.169088    1.194067    1.340089
      8          7           0      -11.169750    1.781375    1.421455
      9          6           0       -7.717898    1.167452    1.321111
     10          7           0       -6.695985    1.718791    1.383308
     11          6           0       -5.812764   -2.109413    0.948689
     12          7           0       -4.806707   -1.529001    0.986658
     13          6           0       -7.031088   -4.218606    0.736887
     14          7           0       -7.025120   -5.373140    0.601189
     15          6           0      -10.838622   -4.223272    0.838629
     16          7           0      -10.793418   -5.381443    0.759924
     17          6           0      -12.079800   -2.102616    0.990288
     18          7           0      -13.072940   -1.500101    1.026351
 ---------------------------------------------------------------------

 SCF Done:  E(UwB97XD) =  -784.860521412     A.U. after   14 cycles

 Alpha  occ. eigenvalues --  -14.45967 -14.45937 -14.45936 -14.45915 -14.45912
 Alpha  occ. eigenvalues --  -14.45901 -10.38259 -10.38193 -10.38146 -10.38049
 Alpha  occ. eigenvalues --  -10.38038 -10.37994 -10.36142 -10.36108 -10.36104
 Alpha  occ. eigenvalues --  -10.36080 -10.36079 -10.36070  -1.06746  -1.01960
 Alpha  occ. eigenvalues --   -1.01942  -1.01571  -1.00749  -1.00717  -1.00651
 Alpha  occ. eigenvalues --   -0.92079  -0.92049  -0.90125  -0.72269  -0.72197
 Alpha  occ. eigenvalues --   -0.68798  -0.68592  -0.68509  -0.67747  -0.55749
 Alpha  occ. eigenvalues --   -0.50903  -0.50887  -0.49791  -0.49693  -0.47622
 Alpha  occ. eigenvalues --   -0.47515  -0.47510  -0.47018  -0.46789  -0.46749
 Alpha  occ. eigenvalues --   -0.46644  -0.45179  -0.44863  -0.44834  -0.44678
 Alpha  occ. eigenvalues --   -0.44382  -0.44355  -0.42941  -0.42756  -0.42732
 Alpha  occ. eigenvalues --   -0.35262  -0.35246  -0.28017
 Alpha virt. eigenvalues --    0.04768   0.04882   0.06452   0.06844   0.06954
 Alpha virt. eigenvalues --    0.10196   0.10238   0.10541   0.10615   0.12406
 Alpha virt. eigenvalues --    0.12552   0.14494   0.19341   0.19410   0.20968

  Beta  occ. eigenvalues --  -14.45773 -14.45744 -14.45743 -14.45722 -14.45719
  Beta  occ. eigenvalues --  -14.45709 -10.38296 -10.38230 -10.38182 -10.37697
  Beta  occ. eigenvalues --  -10.37686 -10.37643 -10.36235 -10.36200 -10.36196
  Beta  occ. eigenvalues --  -10.36172 -10.36171 -10.36161  -1.06353  -1.01608
  Beta  occ. eigenvalues --   -1.01590  -1.01216  -1.00418  -1.00385  -1.00319
  Beta  occ. eigenvalues --   -0.91316  -0.91283  -0.89150  -0.72137  -0.72061
  Beta  occ. eigenvalues --   -0.68583  -0.68378  -0.68247  -0.67588  -0.54982
  Beta  occ. eigenvalues --   -0.49703  -0.49602  -0.49588  -0.49554  -0.47262
  Beta  occ. eigenvalues --   -0.47155  -0.47150  -0.46658  -0.46505  -0.46467
  Beta  occ. eigenvalues --   -0.45482  -0.45076  -0.44237  -0.44211  -0.43931
  Beta  occ. eigenvalues --   -0.43895  -0.43868  -0.42795  -0.42615  -0.42591
  Beta  occ. eigenvalues --   -0.32259  -0.32230
  Beta virt. eigenvalues --   -0.10732   0.05459   0.05569   0.06564   0.06944
  Beta virt. eigenvalues --    0.07051   0.10539   0.11234   0.11272   0.11393
  Beta virt. eigenvalues --    0.12452   0.12595   0.14748   0.19536   0.19605

 Mulliken charges and spin densities:
               1          2
     1  C    0.181598  -0.051072
     2  C   -0.376659   0.305809
     3  C    0.186719  -0.051780
     4  C   -0.380285   0.305489
     5  C    0.175541  -0.051003
     6  C   -0.371868   0.305661
     7  C   -0.083061  -0.072868
     8  N    0.017553   0.112511
     9  C   -0.087152  -0.072475
    10  N    0.014105   0.112082
    11  C   -0.087025  -0.072266
    12  N    0.017087   0.111832
    13  C   -0.085911  -0.072498
    14  N    0.017694   0.111958
    15  C   -0.086385  -0.072026
    16  N    0.015226   0.111232
    17  C   -0.084173  -0.072506
    18  N    0.016996   0.111919
 Sum of Mulliken charges =  -1.00000   1.00000

 Dipole moment (field-independent basis, Debye):
    X=             42.7313    Y=              8.2152    Z=             -4.9512  Tot=             43.7946
 Quadrupole moment (field-independent basis, Debye-Ang):
   XX=           -551.4786   YY=           -184.9907   ZZ=           -104.1318
   XY=            -72.3225   XZ=             44.7990   YZ=              1.1941

 Normal termination of Gaussian 16 at Fri Oct 11 16:10:05 2024.
