 Gaussian 16, Revision C.01,
 Gaussian 16:  ES64L-G16RevC.01  3-Jul-2019

 ----------------------------------------------------------------------
 # wb97xd def2svp scrf=(smd,solvent=acetonitrile) g09default scf=(xqc,m
 axcycle=64) force guess=read nosymm
 ----------------------------------------------------------------------

 ----------
 Title Card
 ----------
 Symbolic Z-matrix:
 Charge = -2 Multiplicity = 1

                          Input orientation:
 ---------------------------------------------------------------------
 Center     Atomic      Atomic             Coordinates (Angstroms)
 Number     Number       Type             X           Y           Z
 ---------------------------------------------------------------------
      1          6           0       -8.950524   -0.916259    1.106109
      2          6           0       -8.950732    0.470931    1.246098
      3          6           0       -8.253347   -2.115134    0.985225
      4          6           0       -7.046238   -2.808498    0.898674
      5          6           0       -9.643853   -2.115331    0.996758
      6          6           0      -10.850617   -2.809090    0.941452
      7          6           0      -10.169299    1.193645    1.340087
      8          7           0      -11.169520    1.780031    1.421040
      9          6           0       -7.717647    1.168842    1.320994
     10          7           0       -6.695757    1.718594    1.383136
     11          6           0       -5.812085   -2.109463    0.948621
     12          7           0       -4.806626   -1.528115    0.987027
     13          6           0       -7.031411   -4.218875    0.737268
     14          7           0       -7.025622   -5.373099    0.601578
     15          6           0      -10.839366   -4.223463    0.838322
     16          7           0      -10.793934   -5.382053    0.759299
     17          6           0      -12.080299   -2.102942    0.990279
     18          7           0      -13.073017   -1.499899    1.026838
 ---------------------------------------------------------------------

 SCF Done:  E(RwB97XD) =  -785.032620531     A.U. after   10 cycles

 Alpha  occ. eigenvalues --  -14.42781 -14.42772 -14.42759 -14.42745 -14.42744
 Alpha  occ. eigenvalues --  -14.42735 -10.34993 -10.34925 -10.34884 -10.33722
 Alpha  occ. eigenvalues --  -10.33709 -10.33694 -10.33678 -10.33676 -10.33665
 Alpha  occ. eigenvalues --  -10.32731 -10.32719 -10.32685  -1.03069  -0.99102
 Alpha  occ. eigenvalues --   -0.99101  -0.98724  -0.98034  -0.98023  -0.97948
 Alpha  occ. eigenvalues --   -0.88206  -0.88172  -0.86093  -0.68792  -0.68728
 Alpha  occ. eigenvalues --   -0.65218  -0.65019  -0.64905  -0.64134  -0.52458
 Alpha  occ. eigenvalues --   -0.47695  -0.47685  -0.46785  -0.46730  -0.45185
 Alpha  occ. eigenvalues --   -0.45071  -0.45066  -0.44534  -0.44215  -0.44167
 Alpha  occ. eigenvalues --   -0.43851  -0.42826  -0.42241  -0.42225  -0.42049
 Alpha  occ. eigenvalues --   -0.41951  -0.41924  -0.40538  -0.40195  -0.40154
 Alpha  occ. eigenvalues --   -0.31476  -0.31465  -0.23629
 Alpha virt. eigenvalues --    0.07462   0.07547   0.08865   0.09297   0.09382
 Alpha virt. eigenvalues --    0.12692   0.12736   0.13120   0.13153   0.14843
 Alpha virt. eigenvalues --    0.14983   0.16311   0.21083   0.21158   0.24201

 Mulliken charges:
               1
     1  C    0.159619
     2  C   -0.485177
     3  C    0.164373
     4  C   -0.488602
     5  C    0.154891
     6  C   -0.480093
     7  C   -0.132542
     8  N   -0.034596
     9  C   -0.136362
    10  N   -0.038046
    11  C   -0.135826
    12  N   -0.035988
    13  C   -0.134810
    14  N   -0.035152
    15  C   -0.134406
    16  N   -0.038450
    17  C   -0.132768
    18  N   -0.036064
 Sum of Mulliken charges =  -2.00000

 Dipole moment (field-independent basis, Debye):
    X=             85.6685    Y=             16.4628    Z=             -9.8948  Tot=             87.7953
 Quadrupole moment (field-independent basis, Debye-Ang):
   XX=           -963.9164   YY=           -227.5456   ZZ=           -113.5417
   XY=           -145.9069   XZ=             89.2531   YZ=              7.2569

 Normal termination of Gaussian 16 at Fri Oct 11 16:11:08 2024.
