 Gaussian 16, Revision C.01,
 Gaussian 16:  ES64L-G16RevC.01  3-Jul-2019

 ----------------------------------------------------------------------
 # wb97xd def2svp scrf=(smd,solvent=acetonitrile) g09default scf=(xqc,m
 axcycle=64) force guess=read nosymm
 ----------------------------------------------------------------------

 ----------
 Title Card
 ----------
 Symbolic Z-matrix:
 Charge = -1 Multiplicity = 2

                          Input orientation:
 ---------------------------------------------------------------------
 Center     Atomic      Atomic             Coordinates (Angstroms)
 Number     Number       Type             X           Y           Z
 ---------------------------------------------------------------------
      1          6           0       -8.950524   -0.916259    1.106109
      2          6           0       -8.950732    0.470931    1.246098
      3          6           0       -8.253347   -2.115134    0.985225
      4          6           0       -7.046238   -2.808498    0.898674
      5          6           0       -9.643853   -2.115331    0.996758
      6          6           0      -10.850617   -2.809090    0.941452
      7          6           0      -10.169299    1.193645    1.340087
      8          7           0      -11.169520    1.780031    1.421040
      9          6           0       -7.717647    1.168842    1.320994
     10          7           0       -6.695757    1.718594    1.383136
     11          6           0       -5.812085   -2.109463    0.948621
     12          7           0       -4.806626   -1.528115    0.987027
     13          6           0       -7.031411   -4.218875    0.737268
     14          7           0       -7.025622   -5.373099    0.601578
     15          6           0      -10.839366   -4.223463    0.838322
     16          7           0      -10.793934   -5.382053    0.759299
     17          6           0      -12.080299   -2.102942    0.990279
     18          7           0      -13.073017   -1.499899    1.026838
 ---------------------------------------------------------------------

 SCF Done:  E(UwB97XD) =  -784.860593463     A.U. after   14 cycles

 Alpha  occ. eigenvalues --  -14.45947 -14.45935 -14.45930 -14.45915 -14.45910
 Alpha  occ. eigenvalues --  -14.45898 -10.38258 -10.38193 -10.38153 -10.38055
 Alpha  occ. eigenvalues --  -10.38036 -10.37999 -10.36122 -10.36108 -10.36099
 Alpha  occ. eigenvalues --  -10.36082 -10.36078 -10.36066  -1.06714  -1.01959
 Alpha  occ. eigenvalues --   -1.01956  -1.01575  -1.00746  -1.00736  -1.00665
 Alpha  occ. eigenvalues --   -0.92076  -0.92047  -0.90114  -0.72259  -0.72195
 Alpha  occ. eigenvalues --   -0.68788  -0.68587  -0.68495  -0.67744  -0.55738
 Alpha  occ. eigenvalues --   -0.50899  -0.50890  -0.49764  -0.49701  -0.47620
 Alpha  occ. eigenvalues --   -0.47513  -0.47510  -0.47017  -0.46785  -0.46751
 Alpha  occ. eigenvalues --   -0.46639  -0.45186  -0.44861  -0.44847  -0.44685
 Alpha  occ. eigenvalues --   -0.44386  -0.44361  -0.42948  -0.42766  -0.42734
 Alpha  occ. eigenvalues --   -0.35267  -0.35254  -0.28007
 Alpha virt. eigenvalues --    0.04782   0.04866   0.06468   0.06865   0.06954
 Alpha virt. eigenvalues --    0.10208   0.10250   0.10533   0.10628   0.12408
 Alpha virt. eigenvalues --    0.12558   0.14494   0.19338   0.19405   0.20968

  Beta  occ. eigenvalues --  -14.45754 -14.45743 -14.45737 -14.45722 -14.45718
  Beta  occ. eigenvalues --  -14.45706 -10.38295 -10.38230 -10.38190 -10.37703
  Beta  occ. eigenvalues --  -10.37684 -10.37648 -10.36214 -10.36200 -10.36191
  Beta  occ. eigenvalues --  -10.36174 -10.36170 -10.36158  -1.06320  -1.01607
  Beta  occ. eigenvalues --   -1.01604  -1.01221  -1.00415  -1.00404  -1.00335
  Beta  occ. eigenvalues --   -0.91313  -0.91281  -0.89139  -0.72127  -0.72060
  Beta  occ. eigenvalues --   -0.68572  -0.68372  -0.68233  -0.67585  -0.54968
  Beta  occ. eigenvalues --   -0.49684  -0.49600  -0.49588  -0.49555  -0.47261
  Beta  occ. eigenvalues --   -0.47153  -0.47150  -0.46657  -0.46502  -0.46469
  Beta  occ. eigenvalues --   -0.45478  -0.45083  -0.44241  -0.44217  -0.43927
  Beta  occ. eigenvalues --   -0.43910  -0.43880  -0.42803  -0.42625  -0.42595
  Beta  occ. eigenvalues --   -0.32261  -0.32247
  Beta virt. eigenvalues --   -0.10719   0.05475   0.05556   0.06580   0.06964
  Beta virt. eigenvalues --    0.07051   0.10531   0.11243   0.11286   0.11404
  Beta virt. eigenvalues --    0.12454   0.12602   0.14748   0.19533   0.19600

 Mulliken charges and spin densities:
               1          2
     1  C    0.181971  -0.051231
     2  C   -0.377270   0.305793
     3  C    0.186186  -0.051632
     4  C   -0.380165   0.306219
     5  C    0.176254  -0.050735
     6  C   -0.372144   0.305266
     7  C   -0.083663  -0.072497
     8  N    0.018263   0.111899
     9  C   -0.087699  -0.072140
    10  N    0.014962   0.111469
    11  C   -0.087030  -0.072371
    12  N    0.017050   0.111916
    13  C   -0.086001  -0.072513
    14  N    0.017865   0.111956
    15  C   -0.085862  -0.072128
    16  N    0.014578   0.111467
    17  C   -0.084064  -0.072286
    18  N    0.016770   0.111549
 Sum of Mulliken charges =  -1.00000   1.00000

 Dipole moment (field-independent basis, Debye):
    X=             42.7372    Y=              8.2251    Z=             -4.9508  Tot=             43.8022
 Quadrupole moment (field-independent basis, Debye-Ang):
   XX=           -551.5716   YY=           -184.9855   ZZ=           -104.1304
   XY=            -72.4413   XZ=             44.7981   YZ=              1.2084

 Normal termination of Gaussian 16 at Fri Oct 11 16:10:50 2024.
