 Gaussian 16, Revision C.01,
 Gaussian 16:  ES64L-G16RevC.01  3-Jul-2019

 ----------------------------------------------------------------------
 # wb97xd def2svp scrf=(smd,solvent=acetonitrile) g09default scf=(xqc,m
 axcycle=64) force guess=read nosymm
 ----------------------------------------------------------------------

 ----------
 Title Card
 ----------
 Symbolic Z-matrix:
 Charge = -2 Multiplicity = 1

                          Input orientation:
 ---------------------------------------------------------------------
 Center     Atomic      Atomic             Coordinates (Angstroms)
 Number     Number       Type             X           Y           Z
 ---------------------------------------------------------------------
      1          6           0       -8.951089   -0.916210    1.106234
      2          6           0       -8.950474    0.471404    1.246608
      3          6           0       -8.253443   -2.115118    0.985080
      4          6           0       -7.046111   -2.808445    0.898394
      5          6           0       -9.643868   -2.115298    0.996749
      6          6           0      -10.850958   -2.809525    0.941523
      7          6           0      -10.168515    1.195124    1.340667
      8          7           0      -11.169786    1.780102    1.421122
      9          6           0       -7.717098    1.168724    1.321237
     10          7           0       -6.695405    1.719016    1.383321
     11          6           0       -5.812141   -2.109245    0.948481
     12          7           0       -4.806481   -1.528116    0.986706
     13          6           0       -7.030862   -4.218935    0.736659
     14          7           0       -7.025975   -5.373405    0.600984
     15          6           0      -10.840222   -4.224187    0.838639
     16          7           0      -10.793687   -5.382692    0.760019
     17          6           0      -12.080466   -2.103170    0.990140
     18          7           0      -13.073313   -1.500200    1.026241
 ---------------------------------------------------------------------

 SCF Done:  E(RwB97XD) =  -785.032650806     A.U. after    9 cycles

 Alpha  occ. eigenvalues --  -14.42785 -14.42770 -14.42768 -14.42748 -14.42745
 Alpha  occ. eigenvalues --  -14.42736 -10.35003 -10.34937 -10.34893 -10.33727
 Alpha  occ. eigenvalues --  -10.33707 -10.33704 -10.33680 -10.33678 -10.33667
 Alpha  occ. eigenvalues --  -10.32740 -10.32726 -10.32689  -1.03073  -0.99098
 Alpha  occ. eigenvalues --   -0.99098  -0.98722  -0.98032  -0.98019  -0.97945
 Alpha  occ. eigenvalues --   -0.88197  -0.88170  -0.86092  -0.68792  -0.68724
 Alpha  occ. eigenvalues --   -0.65213  -0.65017  -0.64903  -0.64132  -0.52455
 Alpha  occ. eigenvalues --   -0.47691  -0.47683  -0.46796  -0.46727  -0.45185
 Alpha  occ. eigenvalues --   -0.45071  -0.45067  -0.44534  -0.44219  -0.44167
 Alpha  occ. eigenvalues --   -0.43853  -0.42825  -0.42240  -0.42223  -0.42048
 Alpha  occ. eigenvalues --   -0.41948  -0.41922  -0.40536  -0.40193  -0.40158
 Alpha  occ. eigenvalues --   -0.31475  -0.31460  -0.23635
 Alpha virt. eigenvalues --    0.07450   0.07546   0.08862   0.09292   0.09380
 Alpha virt. eigenvalues --    0.12691   0.12731   0.13114   0.13149   0.14838
 Alpha virt. eigenvalues --    0.14976   0.16304   0.21081   0.21157   0.24195

 Mulliken charges:
               1
     1  C    0.159784
     2  C   -0.485141
     3  C    0.164524
     4  C   -0.488498
     5  C    0.154479
     6  C   -0.480144
     7  C   -0.132392
     8  N   -0.034856
     9  C   -0.135953
    10  N   -0.038382
    11  C   -0.135548
    12  N   -0.036239
    13  C   -0.134475
    14  N   -0.035413
    15  C   -0.134222
    16  N   -0.038414
    17  C   -0.132681
    18  N   -0.036428
 Sum of Mulliken charges =  -2.00000

 Dipole moment (field-independent basis, Debye):
    X=             85.6750    Y=             16.4611    Z=             -9.8941  Tot=             87.8013
 Quadrupole moment (field-independent basis, Debye-Ang):
   XX=           -964.0514   YY=           -227.5526   ZZ=           -113.5452
   XY=           -145.9116   XZ=             89.2542   YZ=              7.2556

 Normal termination of Gaussian 16 at Fri Oct 11 16:11:51 2024.
