 Gaussian 16, Revision C.01,
 Gaussian 16:  ES64L-G16RevC.01  3-Jul-2019

 ----------------------------------------------------------------------
 # wb97xd def2svp scrf=(smd,solvent=acetonitrile) g09default scf=(xqc,m
 axcycle=64) force guess=read nosymm
 ----------------------------------------------------------------------

 ----------
 Title Card
 ----------
 Symbolic Z-matrix:
 Charge = -1 Multiplicity = 2

                          Input orientation:
 ---------------------------------------------------------------------
 Center     Atomic      Atomic             Coordinates (Angstroms)
 Number     Number       Type             X           Y           Z
 ---------------------------------------------------------------------
      1          6           0       -8.951089   -0.916210    1.106234
      2          6           0       -8.950474    0.471404    1.246608
      3          6           0       -8.253443   -2.115118    0.985080
      4          6           0       -7.046111   -2.808445    0.898394
      5          6           0       -9.643868   -2.115298    0.996749
      6          6           0      -10.850958   -2.809525    0.941523
      7          6           0      -10.168515    1.195124    1.340667
      8          7           0      -11.169786    1.780102    1.421122
      9          6           0       -7.717098    1.168724    1.321237
     10          7           0       -6.695405    1.719016    1.383321
     11          6           0       -5.812141   -2.109245    0.948481
     12          7           0       -4.806481   -1.528116    0.986706
     13          6           0       -7.030862   -4.218935    0.736659
     14          7           0       -7.025975   -5.373405    0.600984
     15          6           0      -10.840222   -4.224187    0.838639
     16          7           0      -10.793687   -5.382692    0.760019
     17          6           0      -12.080466   -2.103170    0.990140
     18          7           0      -13.073313   -1.500200    1.026241
 ---------------------------------------------------------------------

 SCF Done:  E(UwB97XD) =  -784.860563546     A.U. after   13 cycles

 Alpha  occ. eigenvalues --  -14.45951 -14.45936 -14.45936 -14.45915 -14.45911
 Alpha  occ. eigenvalues --  -14.45900 -10.38266 -10.38202 -10.38161 -10.38059
 Alpha  occ. eigenvalues --  -10.38042 -10.38008 -10.36127 -10.36109 -10.36106
 Alpha  occ. eigenvalues --  -10.36082 -10.36080 -10.36068  -1.06715  -1.01955
 Alpha  occ. eigenvalues --   -1.01953  -1.01573  -1.00746  -1.00731  -1.00662
 Alpha  occ. eigenvalues --   -0.92069  -0.92042  -0.90112  -0.72257  -0.72191
 Alpha  occ. eigenvalues --   -0.68783  -0.68583  -0.68492  -0.67740  -0.55734
 Alpha  occ. eigenvalues --   -0.50896  -0.50887  -0.49776  -0.49696  -0.47621
 Alpha  occ. eigenvalues --   -0.47513  -0.47510  -0.47017  -0.46788  -0.46750
 Alpha  occ. eigenvalues --   -0.46639  -0.45185  -0.44861  -0.44844  -0.44683
 Alpha  occ. eigenvalues --   -0.44383  -0.44359  -0.42946  -0.42763  -0.42737
 Alpha  occ. eigenvalues --   -0.35264  -0.35250  -0.28013
 Alpha virt. eigenvalues --    0.04771   0.04866   0.06466   0.06861   0.06952
 Alpha virt. eigenvalues --    0.10207   0.10246   0.10526   0.10624   0.12402
 Alpha virt. eigenvalues --    0.12551   0.14487   0.19336   0.19403   0.20962

  Beta  occ. eigenvalues --  -14.45758 -14.45744 -14.45743 -14.45722 -14.45719
  Beta  occ. eigenvalues --  -14.45708 -10.38303 -10.38239 -10.38197 -10.37707
  Beta  occ. eigenvalues --  -10.37690 -10.37656 -10.36219 -10.36201 -10.36198
  Beta  occ. eigenvalues --  -10.36174 -10.36172 -10.36159  -1.06321  -1.01603
  Beta  occ. eigenvalues --   -1.01602  -1.01219  -1.00414  -1.00399  -1.00331
  Beta  occ. eigenvalues --   -0.91305  -0.91276  -0.89136  -0.72126  -0.72056
  Beta  occ. eigenvalues --   -0.68567  -0.68369  -0.68230  -0.67582  -0.54965
  Beta  occ. eigenvalues --   -0.49692  -0.49597  -0.49586  -0.49552  -0.47261
  Beta  occ. eigenvalues --   -0.47154  -0.47150  -0.46658  -0.46505  -0.46469
  Beta  occ. eigenvalues --   -0.45479  -0.45082  -0.44238  -0.44214  -0.43927
  Beta  occ. eigenvalues --   -0.43907  -0.43877  -0.42801  -0.42622  -0.42597
  Beta  occ. eigenvalues --   -0.32260  -0.32238
  Beta virt. eigenvalues --   -0.10725   0.05463   0.05554   0.06577   0.06960
  Beta virt. eigenvalues --    0.07049   0.10524   0.11243   0.11282   0.11400
  Beta virt. eigenvalues --    0.12448   0.12595   0.14742   0.19532   0.19598

 Mulliken charges and spin densities:
               1          2
     1  C    0.182114  -0.051298
     2  C   -0.377211   0.305849
     3  C    0.186341  -0.051685
     4  C   -0.380183   0.305898
     5  C    0.175823  -0.050867
     6  C   -0.372043   0.305717
     7  C   -0.083479  -0.072579
     8  N    0.018026   0.111999
     9  C   -0.087356  -0.072198
    10  N    0.014650   0.111569
    11  C   -0.086843  -0.072317
    12  N    0.016765   0.111862
    13  C   -0.085700  -0.072519
    14  N    0.017575   0.111917
    15  C   -0.085615  -0.072216
    16  N    0.014629   0.111519
    17  C   -0.083965  -0.072419
    18  N    0.016473   0.111769
 Sum of Mulliken charges =  -1.00000   1.00000

 Dipole moment (field-independent basis, Debye):
    X=             42.7364    Y=              8.2247    Z=             -4.9498  Tot=             43.8012
 Quadrupole moment (field-independent basis, Debye-Ang):
   XX=           -551.5699   YY=           -184.9895   ZZ=           -104.1328
   XY=            -72.4352   XZ=             44.7879   YZ=              1.2096

 Normal termination of Gaussian 16 at Fri Oct 11 16:11:33 2024.
