 Gaussian 16, Revision C.01,
 Gaussian 16:  ES64L-G16RevC.01  3-Jul-2019

 ----------------------------------------------------------------------
 # wb97xd def2svp scrf=(smd,solvent=acetonitrile) g09default scf=(xqc,m
 axcycle=64) force guess=read nosymm
 ----------------------------------------------------------------------

 ----------
 Title Card
 ----------
 Symbolic Z-matrix:
 Charge = -2 Multiplicity = 1

                          Input orientation:
 ---------------------------------------------------------------------
 Center     Atomic      Atomic             Coordinates (Angstroms)
 Number     Number       Type             X           Y           Z
 ---------------------------------------------------------------------
      1          6           0       -8.939296   -0.961958    1.106442
      2          6           0       -8.938430    0.531526    1.254711
      3          6           0       -8.282947   -2.092608    0.981212
      4          6           0       -6.982803   -2.837507    0.896854
      5          6           0       -9.596636   -2.093592    0.997454
      6          6           0      -10.897442   -2.839889    0.935611
      7          6           0      -10.146202    1.186930    1.336798
      8          7           0      -11.180045    1.725563    1.402752
      9          6           0       -7.729703    1.187293    1.318300
     10          7           0       -6.695297    1.726212    1.372720
     11          6           0       -5.807991   -2.121832    0.952346
     12          7           0       -4.822891   -1.497114    1.000595
     13          6           0       -7.013439   -4.206106    0.750117
     14          7           0       -7.059307   -5.366394    0.626453
     15          6           0      -10.867209   -4.211782    0.820894
     16          7           0      -10.821243   -5.374765    0.727963
     17          6           0      -12.072104   -2.124476    0.997206
     18          7           0      -13.056912   -1.499680    1.050377
 ---------------------------------------------------------------------

 SCF Done:  E(RwB97XD) =  -784.998833947     A.U. after   12 cycles

 Alpha  occ. eigenvalues --  -14.42464 -14.42460 -14.42460 -14.42456 -14.42455
 Alpha  occ. eigenvalues --  -14.42452 -10.36242 -10.36094 -10.36086 -10.33414
 Alpha  occ. eigenvalues --  -10.33412 -10.33410 -10.33408 -10.33407 -10.33405
 Alpha  occ. eigenvalues --  -10.32754 -10.32751 -10.32742  -1.08627  -0.98852
 Alpha  occ. eigenvalues --   -0.98850  -0.98770  -0.97580  -0.97579  -0.97497
 Alpha  occ. eigenvalues --   -0.87783  -0.87779  -0.86880  -0.69008  -0.68990
 Alpha  occ. eigenvalues --   -0.66227  -0.65410  -0.65399  -0.63524  -0.54187
 Alpha  occ. eigenvalues --   -0.48428  -0.48419  -0.47872  -0.47868  -0.45300
 Alpha  occ. eigenvalues --   -0.44944  -0.44823  -0.44821  -0.44419  -0.44414
 Alpha  occ. eigenvalues --   -0.44281  -0.42324  -0.41927  -0.41925  -0.41745
 Alpha  occ. eigenvalues --   -0.41580  -0.41567  -0.40235  -0.39716  -0.39705
 Alpha  occ. eigenvalues --   -0.30162  -0.30157  -0.25211
 Alpha virt. eigenvalues --    0.07284   0.07300   0.08163   0.08919   0.08928
 Alpha virt. eigenvalues --    0.12611   0.12616   0.12967   0.13846   0.14727
 Alpha virt. eigenvalues --    0.14737   0.15999   0.21627   0.21637   0.25269

 Mulliken charges:
               1
     1  C    0.128133
     2  C   -0.470396
     3  C    0.128383
     4  C   -0.470398
     5  C    0.128014
     6  C   -0.470669
     7  C   -0.112534
     8  N   -0.049547
     9  C   -0.112483
    10  N   -0.049643
    11  C   -0.112445
    12  N   -0.049631
    13  C   -0.112425
    14  N   -0.049987
    15  C   -0.112625
    16  N   -0.049755
    17  C   -0.112391
    18  N   -0.049602
 Sum of Mulliken charges =  -2.00000

 Dipole moment (field-independent basis, Debye):
    X=             85.8746    Y=             16.4625    Z=             -9.9029  Tot=             87.9973
 Quadrupole moment (field-independent basis, Debye-Ang):
   XX=           -970.4736   YY=           -230.0243   ZZ=           -113.2041
   XY=           -147.2467   XZ=             89.3880   YZ=              7.0803

 Normal termination of Gaussian 16 at Fri Oct 11 15:31:31 2024.
