 Gaussian 16, Revision C.01,
 Gaussian 16:  ES64L-G16RevC.01  3-Jul-2019

 ----------------------------------------------------------------------
 # wb97xd def2svp scrf=(smd,solvent=acetonitrile) g09default scf=(xqc,m
 axcycle=64) force guess=read nosymm
 ----------------------------------------------------------------------

 ----------
 Title Card
 ----------
 Symbolic Z-matrix:
 Charge = -1 Multiplicity = 2

                          Input orientation:
 ---------------------------------------------------------------------
 Center     Atomic      Atomic             Coordinates (Angstroms)
 Number     Number       Type             X           Y           Z
 ---------------------------------------------------------------------
      1          6           0       -8.939296   -0.961958    1.106442
      2          6           0       -8.938430    0.531526    1.254711
      3          6           0       -8.282947   -2.092608    0.981212
      4          6           0       -6.982803   -2.837507    0.896854
      5          6           0       -9.596636   -2.093592    0.997454
      6          6           0      -10.897442   -2.839889    0.935611
      7          6           0      -10.146202    1.186930    1.336798
      8          7           0      -11.180045    1.725563    1.402752
      9          6           0       -7.729703    1.187293    1.318300
     10          7           0       -6.695297    1.726212    1.372720
     11          6           0       -5.807991   -2.121832    0.952346
     12          7           0       -4.822891   -1.497114    1.000595
     13          6           0       -7.013439   -4.206106    0.750117
     14          7           0       -7.059307   -5.366394    0.626453
     15          6           0      -10.867209   -4.211782    0.820894
     16          7           0      -10.821243   -5.374765    0.727963
     17          6           0      -12.072104   -2.124476    0.997206
     18          7           0      -13.056912   -1.499680    1.050377
 ---------------------------------------------------------------------

 SCF Done:  E(UwB97XD) =  -784.808547694     A.U. after   20 cycles

 Alpha  occ. eigenvalues --  -14.45807 -14.45804 -14.45802 -14.45799 -14.45797
 Alpha  occ. eigenvalues --  -14.45794 -10.39102 -10.38953 -10.38947 -10.37986
 Alpha  occ. eigenvalues --  -10.37979 -10.37968 -10.35864 -10.35863 -10.35860
 Alpha  occ. eigenvalues --  -10.35859 -10.35858 -10.35857  -1.11678  -1.01856
 Alpha  occ. eigenvalues --   -1.01852  -1.01750  -1.00461  -1.00457  -1.00382
 Alpha  occ. eigenvalues --   -0.91608  -0.91606  -0.90775  -0.72263  -0.72246
 Alpha  occ. eigenvalues --   -0.69809  -0.68837  -0.68827  -0.66848  -0.56965
 Alpha  occ. eigenvalues --   -0.51311  -0.51298  -0.51121  -0.51111  -0.48162
 Alpha  occ. eigenvalues --   -0.47522  -0.47409  -0.47406  -0.47015  -0.47012
 Alpha  occ. eigenvalues --   -0.46903  -0.44768  -0.44704  -0.44702  -0.44540
 Alpha  occ. eigenvalues --   -0.44069  -0.44056  -0.42755  -0.42325  -0.42314
 Alpha  occ. eigenvalues --   -0.34022  -0.34015  -0.29587
 Alpha virt. eigenvalues --    0.04942   0.04957   0.05650   0.06423   0.06432
 Alpha virt. eigenvalues --    0.10010   0.10014   0.10324   0.11300   0.12269
 Alpha virt. eigenvalues --    0.12279   0.14102   0.20013   0.20022   0.22040

  Beta  occ. eigenvalues --  -14.45580 -14.45578 -14.45575 -14.45572 -14.45571
  Beta  occ. eigenvalues --  -14.45568 -10.39158 -10.39011 -10.39004 -10.37630
  Beta  occ. eigenvalues --  -10.37622 -10.37612 -10.35967 -10.35966 -10.35963
  Beta  occ. eigenvalues --  -10.35962 -10.35961 -10.35959  -1.11456  -1.01451
  Beta  occ. eigenvalues --   -1.01448  -1.01345  -1.00058  -1.00054  -0.99981
  Beta  occ. eigenvalues --   -0.90779  -0.90777  -0.89813  -0.72163  -0.72145
  Beta  occ. eigenvalues --   -0.69553  -0.68709  -0.68698  -0.66761  -0.56638
  Beta  occ. eigenvalues --   -0.51251  -0.51241  -0.49810  -0.49809  -0.47101
  Beta  occ. eigenvalues --   -0.46988  -0.46985  -0.46920  -0.46636  -0.46632
  Beta  occ. eigenvalues --   -0.46483  -0.44654  -0.43901  -0.43889  -0.43569
  Beta  occ. eigenvalues --   -0.43543  -0.43541  -0.42579  -0.42168  -0.42157
  Beta  occ. eigenvalues --   -0.30240  -0.30237
  Beta virt. eigenvalues --   -0.12774   0.05112   0.05128   0.05778   0.06524
  Beta virt. eigenvalues --    0.06533   0.11140   0.11144   0.11169   0.11329
  Beta virt. eigenvalues --    0.12324   0.12333   0.14402   0.20164   0.20174

 Mulliken charges and spin densities:
               1          2
     1  C    0.142812  -0.065899
     2  C   -0.361915   0.299709
     3  C    0.142945  -0.066442
     4  C   -0.361564   0.300185
     5  C    0.142476  -0.066576
     6  C   -0.361617   0.300675
     7  C   -0.063911  -0.081983
     8  N    0.006721   0.131694
     9  C   -0.063803  -0.081993
    10  N    0.006632   0.131695
    11  C   -0.063801  -0.082051
    12  N    0.006588   0.131719
    13  C   -0.063605  -0.082146
    14  N    0.006276   0.131921
    15  C   -0.063729  -0.082183
    16  N    0.006529   0.131915
    17  C   -0.063742  -0.082203
    18  N    0.006708   0.131963
 Sum of Mulliken charges =  -1.00000   1.00000

 Dipole moment (field-independent basis, Debye):
    X=             42.9324    Y=              8.2178    Z=             -4.9576  Tot=             43.9920
 Quadrupole moment (field-independent basis, Debye-Ang):
   XX=           -556.5173   YY=           -186.1283   ZZ=           -103.8756
   XY=            -73.5074   XZ=             44.9401   YZ=              1.1583

 Normal termination of Gaussian 16 at Fri Oct 11 15:31:10 2024.
