 Gaussian 16, Revision C.01,
 Gaussian 16:  ES64L-G16RevC.01  3-Jul-2019

 ----------------------------------------------------------------------
 # wb97xd def2svp scrf=(smd,solvent=acetonitrile) g09default scf=(xqc,m
 axcycle=64) force guess=read nosymm
 ----------------------------------------------------------------------

 ----------
 Title Card
 ----------
 Symbolic Z-matrix:
 Charge = -2 Multiplicity = 1

                          Input orientation:
 ---------------------------------------------------------------------
 Center     Atomic      Atomic             Coordinates (Angstroms)
 Number     Number       Type             X           Y           Z
 ---------------------------------------------------------------------
      1          6           0       -8.951240   -0.916220    1.106294
      2          6           0       -8.950354    0.471431    1.246929
      3          6           0       -8.253672   -2.114899    0.984993
      4          6           0       -7.046296   -2.808366    0.898179
      5          6           0       -9.644044   -2.115459    0.996723
      6          6           0      -10.850966   -2.809779    0.941576
      7          6           0      -10.168152    1.195624    1.341003
      8          7           0      -11.169595    1.780127    1.421168
      9          6           0       -7.716618    1.168308    1.321372
     10          7           0       -6.695342    1.719245    1.383435
     11          6           0       -5.812518   -2.108903    0.948376
     12          7           0       -4.806429   -1.528225    0.986519
     13          6           0       -7.030897   -4.218882    0.736308
     14          7           0       -7.026212   -5.373204    0.600660
     15          6           0      -10.840359   -4.224352    0.838872
     16          7           0      -10.793523   -5.382991    0.760495
     17          6           0      -12.080262   -2.103191    0.990054
     18          7           0      -13.073414   -1.500443    1.025850
 ---------------------------------------------------------------------

 SCF Done:  E(RwB97XD) =  -785.032654478     A.U. after    8 cycles

 Alpha  occ. eigenvalues --  -14.42784 -14.42773 -14.42765 -14.42749 -14.42748
 Alpha  occ. eigenvalues --  -14.42734 -10.35002 -10.34936 -10.34894 -10.33726
 Alpha  occ. eigenvalues --  -10.33710 -10.33701 -10.33682 -10.33681 -10.33666
 Alpha  occ. eigenvalues --  -10.32739 -10.32727 -10.32690  -1.03075  -0.99099
 Alpha  occ. eigenvalues --   -0.99096  -0.98722  -0.98029  -0.98020  -0.97944
 Alpha  occ. eigenvalues --   -0.88200  -0.88167  -0.86092  -0.68789  -0.68726
 Alpha  occ. eigenvalues --   -0.65215  -0.65016  -0.64904  -0.64131  -0.52456
 Alpha  occ. eigenvalues --   -0.47692  -0.47682  -0.46793  -0.46731  -0.45185
 Alpha  occ. eigenvalues --   -0.45072  -0.45067  -0.44535  -0.44219  -0.44167
 Alpha  occ. eigenvalues --   -0.43853  -0.42824  -0.42239  -0.42224  -0.42047
 Alpha  occ. eigenvalues --   -0.41948  -0.41922  -0.40536  -0.40193  -0.40156
 Alpha  occ. eigenvalues --   -0.31473  -0.31461  -0.23636
 Alpha virt. eigenvalues --    0.07454   0.07542   0.08861   0.09294   0.09376
 Alpha virt. eigenvalues --    0.12688   0.12732   0.13114   0.13149   0.14837
 Alpha virt. eigenvalues --    0.14978   0.16304   0.21081   0.21157   0.24195

 Mulliken charges:
               1
     1  C    0.159828
     2  C   -0.485191
     3  C    0.164399
     4  C   -0.488445
     5  C    0.154455
     6  C   -0.480083
     7  C   -0.132519
     8  N   -0.034633
     9  C   -0.135957
    10  N   -0.038349
    11  C   -0.135508
    12  N   -0.036529
    13  C   -0.134573
    14  N   -0.035111
    15  C   -0.134105
    16  N   -0.038464
    17  C   -0.132612
    18  N   -0.036604
 Sum of Mulliken charges =  -2.00000

 Dipole moment (field-independent basis, Debye):
    X=             85.6716    Y=             16.4613    Z=             -9.8936  Tot=             87.7980
 Quadrupole moment (field-independent basis, Debye-Ang):
   XX=           -963.9996   YY=           -227.5509   ZZ=           -113.5442
   XY=           -145.9121   XZ=             89.2462   YZ=              7.2567

 Normal termination of Gaussian 16 at Fri Oct 11 16:12:33 2024.
