 Gaussian 16, Revision C.01,
 Gaussian 16:  ES64L-G16RevC.01  3-Jul-2019

 ----------------------------------------------------------------------
 # wb97xd def2svp scrf=(smd,solvent=acetonitrile) g09default scf=(xqc,m
 axcycle=64) force guess=read nosymm
 ----------------------------------------------------------------------

 ----------
 Title Card
 ----------
 Symbolic Z-matrix:
 Charge = -1 Multiplicity = 2

                          Input orientation:
 ---------------------------------------------------------------------
 Center     Atomic      Atomic             Coordinates (Angstroms)
 Number     Number       Type             X           Y           Z
 ---------------------------------------------------------------------
      1          6           0       -8.951240   -0.916220    1.106294
      2          6           0       -8.950354    0.471431    1.246929
      3          6           0       -8.253672   -2.114899    0.984993
      4          6           0       -7.046296   -2.808366    0.898179
      5          6           0       -9.644044   -2.115459    0.996723
      6          6           0      -10.850966   -2.809779    0.941576
      7          6           0      -10.168152    1.195624    1.341003
      8          7           0      -11.169595    1.780127    1.421168
      9          6           0       -7.716618    1.168308    1.321372
     10          7           0       -6.695342    1.719245    1.383435
     11          6           0       -5.812518   -2.108903    0.948376
     12          7           0       -4.806429   -1.528225    0.986519
     13          6           0       -7.030897   -4.218882    0.736308
     14          7           0       -7.026212   -5.373204    0.600660
     15          6           0      -10.840359   -4.224352    0.838872
     16          7           0      -10.793523   -5.382991    0.760495
     17          6           0      -12.080262   -2.103191    0.990054
     18          7           0      -13.073414   -1.500443    1.025850
 ---------------------------------------------------------------------

 SCF Done:  E(UwB97XD) =  -784.860560126     A.U. after   12 cycles

 Alpha  occ. eigenvalues --  -14.45950 -14.45938 -14.45934 -14.45917 -14.45914
 Alpha  occ. eigenvalues --  -14.45898 -10.38265 -10.38201 -10.38161 -10.38059
 Alpha  occ. eigenvalues --  -10.38044 -10.38005 -10.36126 -10.36110 -10.36104
 Alpha  occ. eigenvalues --  -10.36085 -10.36083 -10.36067  -1.06717  -1.01955
 Alpha  occ. eigenvalues --   -1.01952  -1.01573  -1.00742  -1.00733  -1.00662
 Alpha  occ. eigenvalues --   -0.92070  -0.92040  -0.90112  -0.72254  -0.72193
 Alpha  occ. eigenvalues --   -0.68784  -0.68583  -0.68492  -0.67739  -0.55734
 Alpha  occ. eigenvalues --   -0.50896  -0.50886  -0.49772  -0.49700  -0.47621
 Alpha  occ. eigenvalues --   -0.47513  -0.47510  -0.47017  -0.46788  -0.46750
 Alpha  occ. eigenvalues --   -0.46640  -0.45184  -0.44859  -0.44845  -0.44683
 Alpha  occ. eigenvalues --   -0.44383  -0.44358  -0.42946  -0.42763  -0.42735
 Alpha  occ. eigenvalues --   -0.35263  -0.35250  -0.28014
 Alpha virt. eigenvalues --    0.04775   0.04863   0.06465   0.06862   0.06949
 Alpha virt. eigenvalues --    0.10204   0.10247   0.10527   0.10624   0.12402
 Alpha virt. eigenvalues --    0.12553   0.14487   0.19337   0.19403   0.20962

  Beta  occ. eigenvalues --  -14.45757 -14.45745 -14.45741 -14.45724 -14.45722
  Beta  occ. eigenvalues --  -14.45706 -10.38302 -10.38239 -10.38197 -10.37707
  Beta  occ. eigenvalues --  -10.37692 -10.37654 -10.36218 -10.36202 -10.36196
  Beta  occ. eigenvalues --  -10.36177 -10.36175 -10.36158  -1.06324  -1.01603
  Beta  occ. eigenvalues --   -1.01601  -1.01218  -1.00411  -1.00402  -1.00331
  Beta  occ. eigenvalues --   -0.91307  -0.91274  -0.89136  -0.72123  -0.72058
  Beta  occ. eigenvalues --   -0.68569  -0.68369  -0.68230  -0.67581  -0.54966
  Beta  occ. eigenvalues --   -0.49690  -0.49598  -0.49587  -0.49553  -0.47261
  Beta  occ. eigenvalues --   -0.47154  -0.47150  -0.46658  -0.46505  -0.46468
  Beta  occ. eigenvalues --   -0.45479  -0.45081  -0.44238  -0.44214  -0.43924
  Beta  occ. eigenvalues --   -0.43908  -0.43877  -0.42801  -0.42622  -0.42595
  Beta  occ. eigenvalues --   -0.32257  -0.32240
  Beta virt. eigenvalues --   -0.10726   0.05467   0.05551   0.06576   0.06961
  Beta virt. eigenvalues --    0.07046   0.10525   0.11239   0.11283   0.11400
  Beta virt. eigenvalues --    0.12447   0.12596   0.14742   0.19533   0.19598

 Mulliken charges and spin densities:
               1          2
     1  C    0.182128  -0.051359
     2  C   -0.377220   0.305957
     3  C    0.186190  -0.051681
     4  C   -0.380071   0.306065
     5  C    0.175840  -0.050827
     6  C   -0.372089   0.305441
     7  C   -0.083572  -0.072570
     8  N    0.018234   0.111966
     9  C   -0.087383  -0.072183
    10  N    0.014676   0.111536
    11  C   -0.086792  -0.072397
    12  N    0.016530   0.112009
    13  C   -0.085762  -0.072515
    14  N    0.017866   0.111881
    15  C   -0.085505  -0.072218
    16  N    0.014572   0.111532
    17  C   -0.083930  -0.072391
    18  N    0.016288   0.111754
 Sum of Mulliken charges =  -1.00000   1.00000

 Dipole moment (field-independent basis, Debye):
    X=             42.7368    Y=              8.2253    Z=             -4.9491  Tot=             43.8016
 Quadrupole moment (field-independent basis, Debye-Ang):
   XX=           -551.5845   YY=           -184.9897   ZZ=           -104.1313
   XY=            -72.4468   XZ=             44.7817   YZ=              1.2121

 Normal termination of Gaussian 16 at Fri Oct 11 16:12:14 2024.
