 Gaussian 16, Revision C.01,
 Gaussian 16:  ES64L-G16RevC.01  3-Jul-2019

 ----------------------------------------------------------------------
 # wb97xd def2svp scrf=(smd,solvent=acetonitrile) g09default scf=(xqc,m
 axcycle=64) force guess=read nosymm
 ----------------------------------------------------------------------

 ----------
 Title Card
 ----------
 Symbolic Z-matrix:
 Charge = -2 Multiplicity = 1

                          Input orientation:
 ---------------------------------------------------------------------
 Center     Atomic      Atomic             Coordinates (Angstroms)
 Number     Number       Type             X           Y           Z
 ---------------------------------------------------------------------
      1          6           0       -8.951127   -0.916150    1.106380
      2          6           0       -8.950188    0.471514    1.247059
      3          6           0       -8.253760   -2.114752    0.984881
      4          6           0       -7.046260   -2.808345    0.898115
      5          6           0       -9.644008   -2.115394    0.996736
      6          6           0      -10.851067   -2.809928    0.941580
      7          6           0      -10.167945    1.195451    1.341070
      8          7           0      -11.169409    1.779926    1.421117
      9          6           0       -7.716678    1.168513    1.321402
     10          7           0       -6.695262    1.719194    1.383427
     11          6           0       -5.812409   -2.108975    0.948285
     12          7           0       -4.806572   -1.528063    0.986552
     13          6           0       -7.031054   -4.218722    0.736320
     14          7           0       -7.026325   -5.373070    0.600638
     15          6           0      -10.840456   -4.224378    0.838913
     16          7           0      -10.793674   -5.383087    0.760508
     17          6           0      -12.080375   -2.103400    0.989979
     18          7           0      -13.073326   -1.500509    1.025842
 ---------------------------------------------------------------------

 SCF Done:  E(RwB97XD) =  -785.032669282     A.U. after    8 cycles

 Alpha  occ. eigenvalues --  -14.42783 -14.42771 -14.42764 -14.42749 -14.42746
 Alpha  occ. eigenvalues --  -14.42734 -10.35003 -10.34938 -10.34897 -10.33724
 Alpha  occ. eigenvalues --  -10.33708 -10.33700 -10.33682 -10.33679 -10.33665
 Alpha  occ. eigenvalues --  -10.32738 -10.32725 -10.32690  -1.03080  -0.99100
 Alpha  occ. eigenvalues --   -0.99096  -0.98723  -0.98029  -0.98020  -0.97945
 Alpha  occ. eigenvalues --   -0.88200  -0.88167  -0.86094  -0.68790  -0.68728
 Alpha  occ. eigenvalues --   -0.65215  -0.65019  -0.64905  -0.64131  -0.52458
 Alpha  occ. eigenvalues --   -0.47693  -0.47684  -0.46793  -0.46734  -0.45185
 Alpha  occ. eigenvalues --   -0.45071  -0.45066  -0.44534  -0.44219  -0.44169
 Alpha  occ. eigenvalues --   -0.43855  -0.42824  -0.42238  -0.42224  -0.42047
 Alpha  occ. eigenvalues --   -0.41948  -0.41922  -0.40536  -0.40194  -0.40155
 Alpha  occ. eigenvalues --   -0.31471  -0.31459  -0.23638
 Alpha virt. eigenvalues --    0.07455   0.07539   0.08863   0.09295   0.09377
 Alpha virt. eigenvalues --    0.12690   0.12733   0.13116   0.13150   0.14838
 Alpha virt. eigenvalues --    0.14978   0.16303   0.21083   0.21158   0.24198

 Mulliken charges:
               1
     1  C    0.159839
     2  C   -0.485185
     3  C    0.164259
     4  C   -0.488414
     5  C    0.154459
     6  C   -0.480082
     7  C   -0.132521
     8  N   -0.034674
     9  C   -0.135930
    10  N   -0.038288
    11  C   -0.135555
    12  N   -0.036379
    13  C   -0.134552
    14  N   -0.035234
    15  C   -0.134006
    16  N   -0.038587
    17  C   -0.132635
    18  N   -0.036515
 Sum of Mulliken charges =  -2.00000

 Dipole moment (field-independent basis, Debye):
    X=             85.6718    Y=             16.4646    Z=             -9.8934  Tot=             87.7987
 Quadrupole moment (field-independent basis, Debye-Ang):
   XX=           -963.9984   YY=           -227.5671   ZZ=           -113.5426
   XY=           -145.9465   XZ=             89.2437   YZ=              7.2594

 Normal termination of Gaussian 16 at Fri Oct 11 16:13:12 2024.
