 Gaussian 16, Revision C.01,
 Gaussian 16:  ES64L-G16RevC.01  3-Jul-2019

 ----------------------------------------------------------------------
 # wb97xd def2svp scrf=(smd,solvent=acetonitrile) g09default scf=(xqc,m
 axcycle=64) force guess=read nosymm
 ----------------------------------------------------------------------

 ----------
 Title Card
 ----------
 Symbolic Z-matrix:
 Charge = -1 Multiplicity = 2

                          Input orientation:
 ---------------------------------------------------------------------
 Center     Atomic      Atomic             Coordinates (Angstroms)
 Number     Number       Type             X           Y           Z
 ---------------------------------------------------------------------
      1          6           0       -8.951127   -0.916150    1.106380
      2          6           0       -8.950188    0.471514    1.247059
      3          6           0       -8.253760   -2.114752    0.984881
      4          6           0       -7.046260   -2.808345    0.898115
      5          6           0       -9.644008   -2.115394    0.996736
      6          6           0      -10.851067   -2.809928    0.941580
      7          6           0      -10.167945    1.195451    1.341070
      8          7           0      -11.169409    1.779926    1.421117
      9          6           0       -7.716678    1.168513    1.321402
     10          7           0       -6.695262    1.719194    1.383427
     11          6           0       -5.812409   -2.108975    0.948285
     12          7           0       -4.806572   -1.528063    0.986552
     13          6           0       -7.031054   -4.218722    0.736320
     14          7           0       -7.026325   -5.373070    0.600638
     15          6           0      -10.840456   -4.224378    0.838913
     16          7           0      -10.793674   -5.383087    0.760508
     17          6           0      -12.080375   -2.103400    0.989979
     18          7           0      -13.073326   -1.500509    1.025842
 ---------------------------------------------------------------------

 SCF Done:  E(UwB97XD) =  -784.860547682     A.U. after   11 cycles

 Alpha  occ. eigenvalues --  -14.45948 -14.45935 -14.45934 -14.45916 -14.45915
 Alpha  occ. eigenvalues --  -14.45898 -10.38266 -10.38202 -10.38164 -10.38059
 Alpha  occ. eigenvalues --  -10.38041 -10.38006 -10.36123 -10.36108 -10.36103
 Alpha  occ. eigenvalues --  -10.36084 -10.36082 -10.36066  -1.06721  -1.01956
 Alpha  occ. eigenvalues --   -1.01953  -1.01574  -1.00742  -1.00734  -1.00662
 Alpha  occ. eigenvalues --   -0.92070  -0.92041  -0.90114  -0.72255  -0.72194
 Alpha  occ. eigenvalues --   -0.68784  -0.68585  -0.68494  -0.67739  -0.55735
 Alpha  occ. eigenvalues --   -0.50897  -0.50888  -0.49771  -0.49704  -0.47621
 Alpha  occ. eigenvalues --   -0.47513  -0.47510  -0.47017  -0.46788  -0.46752
 Alpha  occ. eigenvalues --   -0.46642  -0.45184  -0.44859  -0.44845  -0.44684
 Alpha  occ. eigenvalues --   -0.44382  -0.44359  -0.42946  -0.42764  -0.42735
 Alpha  occ. eigenvalues --   -0.35261  -0.35249  -0.28016
 Alpha virt. eigenvalues --    0.04777   0.04860   0.06466   0.06863   0.06949
 Alpha virt. eigenvalues --    0.10205   0.10248   0.10528   0.10625   0.12403
 Alpha virt. eigenvalues --    0.12553   0.14487   0.19339   0.19404   0.20965

  Beta  occ. eigenvalues --  -14.45755 -14.45743 -14.45741 -14.45724 -14.45722
  Beta  occ. eigenvalues --  -14.45706 -10.38303 -10.38240 -10.38200 -10.37707
  Beta  occ. eigenvalues --  -10.37689 -10.37655 -10.36216 -10.36200 -10.36195
  Beta  occ. eigenvalues --  -10.36176 -10.36175 -10.36157  -1.06328  -1.01604
  Beta  occ. eigenvalues --   -1.01601  -1.01220  -1.00411  -1.00402  -1.00332
  Beta  occ. eigenvalues --   -0.91306  -0.91274  -0.89138  -0.72123  -0.72059
  Beta  occ. eigenvalues --   -0.68569  -0.68371  -0.68232  -0.67581  -0.54967
  Beta  occ. eigenvalues --   -0.49691  -0.49600  -0.49589  -0.49555  -0.47261
  Beta  occ. eigenvalues --   -0.47153  -0.47150  -0.46657  -0.46505  -0.46470
  Beta  occ. eigenvalues --   -0.45481  -0.45081  -0.44237  -0.44214  -0.43924
  Beta  occ. eigenvalues --   -0.43908  -0.43877  -0.42801  -0.42623  -0.42595
  Beta  occ. eigenvalues --   -0.32253  -0.32237
  Beta virt. eigenvalues --   -0.10729   0.05468   0.05548   0.06577   0.06962
  Beta virt. eigenvalues --    0.07046   0.10527   0.11241   0.11284   0.11401
  Beta virt. eigenvalues --    0.12448   0.12597   0.14741   0.19535   0.19599

 Mulliken charges and spin densities:
               1          2
     1  C    0.182138  -0.051381
     2  C   -0.377263   0.305828
     3  C    0.186029  -0.051717
     4  C   -0.380001   0.306166
     5  C    0.175838  -0.050870
     6  C   -0.372080   0.305459
     7  C   -0.083595  -0.072558
     8  N    0.018190   0.111978
     9  C   -0.087355  -0.072186
    10  N    0.014729   0.111552
    11  C   -0.086820  -0.072396
    12  N    0.016671   0.111989
    13  C   -0.085735  -0.072571
    14  N    0.017775   0.111995
    15  C   -0.085407  -0.072271
    16  N    0.014474   0.111633
    17  C   -0.083951  -0.072368
    18  N    0.016363   0.111717
 Sum of Mulliken charges =  -1.00000   1.00000

 Dipole moment (field-independent basis, Debye):
    X=             42.7377    Y=              8.2261    Z=             -4.9491  Tot=             43.8027
 Quadrupole moment (field-independent basis, Debye-Ang):
   XX=           -551.5967   YY=           -184.9938   ZZ=           -104.1301
   XY=            -72.4582   XZ=             44.7814   YZ=              1.2130

 Normal termination of Gaussian 16 at Fri Oct 11 16:12:55 2024.
