 Gaussian 16, Revision C.01,
 Gaussian 16:  ES64L-G16RevC.01  3-Jul-2019

 ----------------------------------------------------------------------
 # wb97xd def2svp scrf=(smd,solvent=acetonitrile) g09default scf=(xqc,m
 axcycle=64) force guess=read nosymm
 ----------------------------------------------------------------------

 ----------
 Title Card
 ----------
 Symbolic Z-matrix:
 Charge = -2 Multiplicity = 1

                          Input orientation:
 ---------------------------------------------------------------------
 Center     Atomic      Atomic             Coordinates (Angstroms)
 Number     Number       Type             X           Y           Z
 ---------------------------------------------------------------------
      1          6           0       -8.952082   -0.915998    1.106950
      2          6           0       -8.948788    0.471958    1.248887
      3          6           0       -8.254354   -2.114233    0.984079
      4          6           0       -7.046695   -2.807411    0.896996
      5          6           0       -9.644397   -2.115277    0.996721
      6          6           0      -10.851380   -2.811094    0.941825
      7          6           0      -10.165613    1.196937    1.342685
      8          7           0      -11.168581    1.779479    1.421158
      9          6           0       -7.714932    1.167889    1.322153
     10          7           0       -6.694205    1.720206    1.383862
     11          6           0       -5.813206   -2.107896    0.947507
     12          7           0       -4.806932   -1.527788    0.985908
     13          6           0       -7.031661   -4.217843    0.734910
     14          7           0       -7.027822   -5.372407    0.599134
     15          6           0      -10.841624   -4.226054    0.839939
     16          7           0      -10.793625   -5.384656    0.762486
     17          6           0      -12.080447   -2.104323    0.989379
     18          7           0      -13.073550   -1.501665    1.024226
 ---------------------------------------------------------------------

 SCF Done:  E(RwB97XD) =  -785.032704822     A.U. after   10 cycles

 Alpha  occ. eigenvalues --  -14.42783 -14.42772 -14.42764 -14.42752 -14.42747
 Alpha  occ. eigenvalues --  -14.42737 -10.35007 -10.34943 -10.34908 -10.33724
 Alpha  occ. eigenvalues --  -10.33708 -10.33701 -10.33686 -10.33679 -10.33668
 Alpha  occ. eigenvalues --  -10.32741 -10.32725 -10.32696  -1.03090  -0.99096
 Alpha  occ. eigenvalues --   -0.99096  -0.98722  -0.98030  -0.98015  -0.97942
 Alpha  occ. eigenvalues --   -0.88193  -0.88169  -0.86096  -0.68790  -0.68728
 Alpha  occ. eigenvalues --   -0.65204  -0.65028  -0.64908  -0.64131  -0.52459
 Alpha  occ. eigenvalues --   -0.47691  -0.47684  -0.46804  -0.46730  -0.45185
 Alpha  occ. eigenvalues --   -0.45071  -0.45066  -0.44534  -0.44222  -0.44170
 Alpha  occ. eigenvalues --   -0.43858  -0.42822  -0.42238  -0.42221  -0.42045
 Alpha  occ. eigenvalues --   -0.41945  -0.41921  -0.40534  -0.40188  -0.40161
 Alpha  occ. eigenvalues --   -0.31469  -0.31455  -0.23644
 Alpha virt. eigenvalues --    0.07449   0.07537   0.08859   0.09291   0.09376
 Alpha virt. eigenvalues --    0.12692   0.12727   0.13113   0.13146   0.14837
 Alpha virt. eigenvalues --    0.14973   0.16299   0.21086   0.21156   0.24196

 Mulliken charges:
               1
     1  C    0.160024
     2  C   -0.485145
     3  C    0.164324
     4  C   -0.488179
     5  C    0.154102
     6  C   -0.480258
     7  C   -0.132739
     8  N   -0.035060
     9  C   -0.135282
    10  N   -0.038452
    11  C   -0.135357
    12  N   -0.036354
    13  C   -0.134388
    14  N   -0.035431
    15  C   -0.133715
    16  N   -0.038316
    17  C   -0.132822
    18  N   -0.036952
 Sum of Mulliken charges =  -2.00000

 Dipole moment (field-independent basis, Debye):
    X=             85.6823    Y=             16.4596    Z=             -9.8921  Tot=             87.8079
 Quadrupole moment (field-independent basis, Debye-Ang):
   XX=           -964.1928   YY=           -227.5662   ZZ=           -113.5419
   XY=           -145.9564   XZ=             89.2403   YZ=              7.2568

 Normal termination of Gaussian 16 at Fri Oct 11 16:13:55 2024.
