 Gaussian 16, Revision C.01,
 Gaussian 16:  ES64L-G16RevC.01  3-Jul-2019

 ----------------------------------------------------------------------
 # wb97xd def2svp scrf=(smd,solvent=acetonitrile) g09default scf=(xqc,m
 axcycle=64) force guess=read nosymm
 ----------------------------------------------------------------------

 ----------
 Title Card
 ----------
 Symbolic Z-matrix:
 Charge = -1 Multiplicity = 2

                          Input orientation:
 ---------------------------------------------------------------------
 Center     Atomic      Atomic             Coordinates (Angstroms)
 Number     Number       Type             X           Y           Z
 ---------------------------------------------------------------------
      1          6           0       -8.952082   -0.915998    1.106950
      2          6           0       -8.948788    0.471958    1.248887
      3          6           0       -8.254354   -2.114233    0.984079
      4          6           0       -7.046695   -2.807411    0.896996
      5          6           0       -9.644397   -2.115277    0.996721
      6          6           0      -10.851380   -2.811094    0.941825
      7          6           0      -10.165613    1.196937    1.342685
      8          7           0      -11.168581    1.779479    1.421158
      9          6           0       -7.714932    1.167889    1.322153
     10          7           0       -6.694205    1.720206    1.383862
     11          6           0       -5.813206   -2.107896    0.947507
     12          7           0       -4.806932   -1.527788    0.985908
     13          6           0       -7.031661   -4.217843    0.734910
     14          7           0       -7.027822   -5.372407    0.599134
     15          6           0      -10.841624   -4.226054    0.839939
     16          7           0      -10.793625   -5.384656    0.762486
     17          6           0      -12.080447   -2.104323    0.989379
     18          7           0      -13.073550   -1.501665    1.024226
 ---------------------------------------------------------------------

 SCF Done:  E(UwB97XD) =  -784.860520742     A.U. after   13 cycles

 Alpha  occ. eigenvalues --  -14.45951 -14.45938 -14.45932 -14.45919 -14.45913
 Alpha  occ. eigenvalues --  -14.45903 -10.38268 -10.38205 -10.38173 -10.38055
 Alpha  occ. eigenvalues --  -10.38042 -10.38017 -10.36125 -10.36108 -10.36103
 Alpha  occ. eigenvalues --  -10.36089 -10.36080 -10.36069  -1.06729  -1.01953
 Alpha  occ. eigenvalues --   -1.01951  -1.01573  -1.00744  -1.00728  -1.00659
 Alpha  occ. eigenvalues --   -0.92065  -0.92040  -0.90115  -0.72253  -0.72193
 Alpha  occ. eigenvalues --   -0.68775  -0.68594  -0.68495  -0.67738  -0.55735
 Alpha  occ. eigenvalues --   -0.50897  -0.50887  -0.49785  -0.49698  -0.47621
 Alpha  occ. eigenvalues --   -0.47514  -0.47510  -0.47017  -0.46791  -0.46751
 Alpha  occ. eigenvalues --   -0.46644  -0.45183  -0.44860  -0.44842  -0.44682
 Alpha  occ. eigenvalues --   -0.44379  -0.44357  -0.42945  -0.42759  -0.42738
 Alpha  occ. eigenvalues --   -0.35256  -0.35246  -0.28022
 Alpha virt. eigenvalues --    0.04773   0.04858   0.06463   0.06860   0.06947
 Alpha virt. eigenvalues --    0.10206   0.10242   0.10526   0.10621   0.12401
 Alpha virt. eigenvalues --    0.12549   0.14483   0.19345   0.19401   0.20963

  Beta  occ. eigenvalues --  -14.45758 -14.45745 -14.45739 -14.45727 -14.45720
  Beta  occ. eigenvalues --  -14.45710 -10.38305 -10.38243 -10.38209 -10.37704
  Beta  occ. eigenvalues --  -10.37689 -10.37665 -10.36217 -10.36201 -10.36195
  Beta  occ. eigenvalues --  -10.36181 -10.36172 -10.36161  -1.06336  -1.01601
  Beta  occ. eigenvalues --   -1.01599  -1.01218  -1.00413  -1.00395  -1.00328
  Beta  occ. eigenvalues --   -0.91300  -0.91273  -0.89139  -0.72122  -0.72058
  Beta  occ. eigenvalues --   -0.68559  -0.68379  -0.68234  -0.67580  -0.54968
  Beta  occ. eigenvalues --   -0.49703  -0.49598  -0.49589  -0.49551  -0.47261
  Beta  occ. eigenvalues --   -0.47153  -0.47149  -0.46658  -0.46507  -0.46469
  Beta  occ. eigenvalues --   -0.45484  -0.45080  -0.44234  -0.44213  -0.43925
  Beta  occ. eigenvalues --   -0.43903  -0.43874  -0.42799  -0.42618  -0.42598
  Beta  occ. eigenvalues --   -0.32250  -0.32229
  Beta virt. eigenvalues --   -0.10736   0.05462   0.05545   0.06574   0.06959
  Beta virt. eigenvalues --    0.07044   0.10525   0.11243   0.11278   0.11398
  Beta virt. eigenvalues --    0.12446   0.12592   0.14738   0.19540   0.19596

 Mulliken charges and spin densities:
               1          2
     1  C    0.182318  -0.051381
     2  C   -0.377251   0.305802
     3  C    0.186069  -0.051717
     4  C   -0.379970   0.305652
     5  C    0.175463  -0.051098
     6  C   -0.372055   0.306056
     7  C   -0.083723  -0.072648
     8  N    0.017858   0.112180
     9  C   -0.086765  -0.072313
    10  N    0.014617   0.111777
    11  C   -0.086714  -0.072298
    12  N    0.016634   0.111886
    13  C   -0.085610  -0.072513
    14  N    0.017525   0.111878
    15  C   -0.085024  -0.072391
    16  N    0.014752   0.111669
    17  C   -0.084122  -0.072482
    18  N    0.015998   0.111943
 Sum of Mulliken charges =  -1.00000   1.00000

 Dipole moment (field-independent basis, Debye):
    X=             42.7389    Y=              8.2245    Z=             -4.9465  Tot=             43.8032
 Quadrupole moment (field-independent basis, Debye-Ang):
   XX=           -551.6233   YY=           -184.9956   ZZ=           -104.1257
   XY=            -72.4563   XZ=             44.7558   YZ=              1.2181

 Normal termination of Gaussian 16 at Fri Oct 11 16:13:36 2024.
