 Gaussian 16, Revision C.01,
 Gaussian 16:  ES64L-G16RevC.01  3-Jul-2019

 ----------------------------------------------------------------------
 # wb97xd def2svp scrf=(smd,solvent=acetonitrile) g09default scf=(xqc,m
 axcycle=64) force guess=read nosymm
 ----------------------------------------------------------------------

 ----------
 Title Card
 ----------
 Symbolic Z-matrix:
 Charge = -2 Multiplicity = 1

                          Input orientation:
 ---------------------------------------------------------------------
 Center     Atomic      Atomic             Coordinates (Angstroms)
 Number     Number       Type             X           Y           Z
 ---------------------------------------------------------------------
      1          6           0       -8.951901   -0.915448    1.106878
      2          6           0       -8.948804    0.470701    1.248695
      3          6           0       -8.253839   -2.114506    0.984103
      4          6           0       -7.047794   -2.806912    0.897038
      5          6           0       -9.644926   -2.115668    0.996667
      6          6           0      -10.850341   -2.810528    0.941833
      7          6           0      -10.165963    1.196158    1.342519
      8          7           0      -11.168207    1.779198    1.421042
      9          6           0       -7.714765    1.167434    1.322015
     10          7           0       -6.694629    1.720062    1.383765
     11          6           0       -5.813490   -2.107453    0.947613
     12          7           0       -4.807304   -1.528020    0.986051
     13          6           0       -7.032200   -4.217697    0.735154
     14          7           0       -7.027945   -5.371924    0.599500
     15          6           0      -10.840997   -4.225728    0.839779
     16          7           0      -10.793638   -5.384141    0.762202
     17          6           0      -12.080136   -2.103891    0.989507
     18          7           0      -13.073016   -1.501812    1.024444
 ---------------------------------------------------------------------

 SCF Done:  E(RwB97XD) =  -785.032522795     A.U. after    9 cycles

 Alpha  occ. eigenvalues --  -14.42779 -14.42765 -14.42759 -14.42748 -14.42742
 Alpha  occ. eigenvalues --  -14.42733 -10.34977 -10.34913 -10.34879 -10.33718
 Alpha  occ. eigenvalues --  -10.33700 -10.33694 -10.33681 -10.33673 -10.33662
 Alpha  occ. eigenvalues --  -10.32728 -10.32714 -10.32684  -1.03024  -0.99108
 Alpha  occ. eigenvalues --   -0.99108  -0.98725  -0.98045  -0.98031  -0.97957
 Alpha  occ. eigenvalues --   -0.88208  -0.88181  -0.86083  -0.68789  -0.68730
 Alpha  occ. eigenvalues --   -0.65202  -0.65023  -0.64890  -0.64141  -0.52445
 Alpha  occ. eigenvalues --   -0.47695  -0.47687  -0.46778  -0.46712  -0.45186
 Alpha  occ. eigenvalues --   -0.45072  -0.45067  -0.44535  -0.44212  -0.44161
 Alpha  occ. eigenvalues --   -0.43841  -0.42834  -0.42248  -0.42231  -0.42055
 Alpha  occ. eigenvalues --   -0.41952  -0.41931  -0.40543  -0.40197  -0.40166
 Alpha  occ. eigenvalues --   -0.31490  -0.31477  -0.23611
 Alpha virt. eigenvalues --    0.07467   0.07549   0.08873   0.09308   0.09392
 Alpha virt. eigenvalues --    0.12706   0.12741   0.13112   0.13163   0.14854
 Alpha virt. eigenvalues --    0.14990   0.16309   0.21081   0.21150   0.24197

 Mulliken charges:
               1
     1  C    0.160643
     2  C   -0.485716
     3  C    0.164930
     4  C   -0.488749
     5  C    0.154859
     6  C   -0.480760
     7  C   -0.133366
     8  N   -0.034451
     9  C   -0.135983
    10  N   -0.037819
    11  C   -0.136069
    12  N   -0.035717
    13  C   -0.135061
    14  N   -0.034871
    15  C   -0.134307
    16  N   -0.037930
    17  C   -0.133499
    18  N   -0.036136
 Sum of Mulliken charges =  -2.00000

 Dipole moment (field-independent basis, Debye):
    X=             85.6802    Y=             16.4625    Z=             -9.8921  Tot=             87.8064
 Quadrupole moment (field-independent basis, Debye-Ang):
   XX=           -964.0735   YY=           -227.5173   ZZ=           -113.5355
   XY=           -145.9793   XZ=             89.2370   YZ=              7.2654

 Normal termination of Gaussian 16 at Fri Oct 11 16:14:37 2024.
