 Gaussian 16, Revision C.01,
 Gaussian 16:  ES64L-G16RevC.01  3-Jul-2019

 ----------------------------------------------------------------------
 # wb97xd def2svp scrf=(smd,solvent=acetonitrile) g09default scf=(xqc,m
 axcycle=64) force guess=read nosymm
 ----------------------------------------------------------------------

 ----------
 Title Card
 ----------
 Symbolic Z-matrix:
 Charge = -1 Multiplicity = 2

                          Input orientation:
 ---------------------------------------------------------------------
 Center     Atomic      Atomic             Coordinates (Angstroms)
 Number     Number       Type             X           Y           Z
 ---------------------------------------------------------------------
      1          6           0       -8.951901   -0.915448    1.106878
      2          6           0       -8.948804    0.470701    1.248695
      3          6           0       -8.253839   -2.114506    0.984103
      4          6           0       -7.047794   -2.806912    0.897038
      5          6           0       -9.644926   -2.115668    0.996667
      6          6           0      -10.850341   -2.810528    0.941833
      7          6           0      -10.165963    1.196158    1.342519
      8          7           0      -11.168207    1.779198    1.421042
      9          6           0       -7.714765    1.167434    1.322015
     10          7           0       -6.694629    1.720062    1.383765
     11          6           0       -5.813490   -2.107453    0.947613
     12          7           0       -4.807304   -1.528020    0.986051
     13          6           0       -7.032200   -4.217697    0.735154
     14          7           0       -7.027945   -5.371924    0.599500
     15          6           0      -10.840997   -4.225728    0.839779
     16          7           0      -10.793638   -5.384141    0.762202
     17          6           0      -12.080136   -2.103891    0.989507
     18          7           0      -13.073016   -1.501812    1.024444
 ---------------------------------------------------------------------

 SCF Done:  E(UwB97XD) =  -784.860708469     A.U. after   12 cycles

 Alpha  occ. eigenvalues --  -14.45944 -14.45930 -14.45923 -14.45914 -14.45906
 Alpha  occ. eigenvalues --  -14.45895 -10.38246 -10.38184 -10.38153 -10.38045
 Alpha  occ. eigenvalues --  -10.38032 -10.38005 -10.36118 -10.36101 -10.36095
 Alpha  occ. eigenvalues --  -10.36084 -10.36074 -10.36063  -1.06673  -1.01963
 Alpha  occ. eigenvalues --   -1.01961  -1.01576  -1.00756  -1.00741  -1.00672
 Alpha  occ. eigenvalues --   -0.92080  -0.92054  -0.90105  -0.72258  -0.72200
 Alpha  occ. eigenvalues --   -0.68773  -0.68590  -0.68478  -0.67753  -0.55729
 Alpha  occ. eigenvalues --   -0.50900  -0.50889  -0.49758  -0.49680  -0.47619
 Alpha  occ. eigenvalues --   -0.47512  -0.47508  -0.47016  -0.46783  -0.46744
 Alpha  occ. eigenvalues --   -0.46628  -0.45194  -0.44867  -0.44850  -0.44689
 Alpha  occ. eigenvalues --   -0.44387  -0.44367  -0.42953  -0.42769  -0.42744
 Alpha  occ. eigenvalues --   -0.35278  -0.35268  -0.27988
 Alpha virt. eigenvalues --    0.04785   0.04864   0.06478   0.06878   0.06964
 Alpha virt. eigenvalues --    0.10222   0.10258   0.10523   0.10639   0.12418
 Alpha virt. eigenvalues --    0.12565   0.14494   0.19339   0.19395   0.20965

  Beta  occ. eigenvalues --  -14.45751 -14.45738 -14.45731 -14.45722 -14.45714
  Beta  occ. eigenvalues --  -14.45704 -10.38282 -10.38221 -10.38189 -10.37694
  Beta  occ. eigenvalues --  -10.37680 -10.37653 -10.36210 -10.36193 -10.36187
  Beta  occ. eigenvalues --  -10.36176 -10.36165 -10.36155  -1.06278  -1.01612
  Beta  occ. eigenvalues --   -1.01610  -1.01222  -1.00426  -1.00410  -1.00342
  Beta  occ. eigenvalues --   -0.91318  -0.91289  -0.89130  -0.72125  -0.72064
  Beta  occ. eigenvalues --   -0.68557  -0.68375  -0.68217  -0.67594  -0.54956
  Beta  occ. eigenvalues --   -0.49683  -0.49598  -0.49577  -0.49541  -0.47261
  Beta  occ. eigenvalues --   -0.47153  -0.47149  -0.46658  -0.46501  -0.46464
  Beta  occ. eigenvalues --   -0.45468  -0.45091  -0.44242  -0.44223  -0.43936
  Beta  occ. eigenvalues --   -0.43915  -0.43885  -0.42807  -0.42628  -0.42604
  Beta  occ. eigenvalues --   -0.32283  -0.32265
  Beta virt. eigenvalues --   -0.10695   0.05483   0.05560   0.06590   0.06977
  Beta virt. eigenvalues --    0.07062   0.10521   0.11256   0.11292   0.11414
  Beta virt. eigenvalues --    0.12463   0.12609   0.14748   0.19534   0.19590

 Mulliken charges and spin densities:
               1          2
     1  C    0.183115  -0.050964
     2  C   -0.377874   0.305725
     3  C    0.186828  -0.051292
     4  C   -0.380550   0.305690
     5  C    0.176415  -0.050653
     6  C   -0.372682   0.305784
     7  C   -0.084331  -0.072381
     8  N    0.018383   0.111740
     9  C   -0.087434  -0.072042
    10  N    0.015163   0.111328
    11  C   -0.087383  -0.072023
    12  N    0.017184   0.111408
    13  C   -0.086243  -0.072316
    14  N    0.018042   0.111579
    15  C   -0.085610  -0.072170
    16  N    0.015085   0.111361
    17  C   -0.084790  -0.072129
    18  N    0.016682   0.111357
 Sum of Mulliken charges =  -1.00000   1.00000

 Dipole moment (field-independent basis, Debye):
    X=             42.7394    Y=              8.2257    Z=             -4.9469  Tot=             43.8040
 Quadrupole moment (field-independent basis, Debye-Ang):
   XX=           -551.5885   YY=           -184.9677   ZZ=           -104.1184
   XY=            -72.4704   XZ=             44.7579   YZ=              1.2223

 Normal termination of Gaussian 16 at Fri Oct 11 16:14:19 2024.
