 Gaussian 16, Revision C.01,
 Gaussian 16:  ES64L-G16RevC.01  3-Jul-2019

 ----------------------------------------------------------------------
 # wb97xd def2svp scrf=(smd,solvent=acetonitrile) g09default scf=(xqc,m
 axcycle=64) force guess=read nosymm
 ----------------------------------------------------------------------

 ----------
 Title Card
 ----------
 Symbolic Z-matrix:
 Charge = -2 Multiplicity = 1

                          Input orientation:
 ---------------------------------------------------------------------
 Center     Atomic      Atomic             Coordinates (Angstroms)
 Number     Number       Type             X           Y           Z
 ---------------------------------------------------------------------
      1          6           0       -8.951872   -0.915533    1.107092
      2          6           0       -8.948292    0.471083    1.249304
      3          6           0       -8.254209   -2.114198    0.983893
      4          6           0       -7.047541   -2.806788    0.896631
      5          6           0       -9.644971   -2.115584    0.996661
      6          6           0      -10.850699   -2.810983    0.941868
      7          6           0      -10.165625    1.196130    1.342876
      8          7           0      -11.168053    1.778912    1.421029
      9          6           0       -7.714084    1.167721    1.322320
     10          7           0       -6.693852    1.720465    1.383830
     11          6           0       -5.813519   -2.107136    0.947311
     12          7           0       -4.807060   -1.527474    0.985983
     13          6           0       -7.032663   -4.217621    0.734826
     14          7           0       -7.028542   -5.371732    0.599118
     15          6           0      -10.841167   -4.226333    0.839986
     16          7           0      -10.793914   -5.384918    0.762612
     17          6           0      -12.080295   -2.104311    0.989348
     18          7           0      -13.073535   -1.501880    1.024116
 ---------------------------------------------------------------------

 SCF Done:  E(RwB97XD) =  -785.032584839     A.U. after    9 cycles

 Alpha  occ. eigenvalues --  -14.42778 -14.42768 -14.42763 -14.42755 -14.42747
 Alpha  occ. eigenvalues --  -14.42738 -10.34984 -10.34920 -10.34891 -10.33718
 Alpha  occ. eigenvalues --  -10.33704 -10.33698 -10.33689 -10.33680 -10.33669
 Alpha  occ. eigenvalues --  -10.32732 -10.32721 -10.32694  -1.03043  -0.99105
 Alpha  occ. eigenvalues --   -0.99100  -0.98722  -0.98035  -0.98028  -0.97951
 Alpha  occ. eigenvalues --   -0.88202  -0.88173  -0.86084  -0.68784  -0.68728
 Alpha  occ. eigenvalues --   -0.65199  -0.65026  -0.64895  -0.64134  -0.52448
 Alpha  occ. eigenvalues --   -0.47691  -0.47683  -0.46782  -0.46721  -0.45187
 Alpha  occ. eigenvalues --   -0.45073  -0.45068  -0.44536  -0.44214  -0.44164
 Alpha  occ. eigenvalues --   -0.43844  -0.42830  -0.42242  -0.42229  -0.42052
 Alpha  occ. eigenvalues --   -0.41951  -0.41928  -0.40541  -0.40193  -0.40163
 Alpha  occ. eigenvalues --   -0.31482  -0.31473  -0.23621
 Alpha virt. eigenvalues --    0.07468   0.07540   0.08866   0.09305   0.09379
 Alpha virt. eigenvalues --    0.12695   0.12734   0.13109   0.13154   0.14843
 Alpha virt. eigenvalues --    0.14982   0.16305   0.21084   0.21149   0.24193

 Mulliken charges:
               1
     1  C    0.160376
     2  C   -0.485565
     3  C    0.164457
     4  C   -0.488467
     5  C    0.154794
     6  C   -0.480552
     7  C   -0.133338
     8  N   -0.034564
     9  C   -0.135658
    10  N   -0.037880
    11  C   -0.135697
    12  N   -0.036168
    13  C   -0.135003
    14  N   -0.034790
    15  C   -0.133935
    16  N   -0.038068
    17  C   -0.133100
    18  N   -0.036841
 Sum of Mulliken charges =  -2.00000

 Dipole moment (field-independent basis, Debye):
    X=             85.6805    Y=             16.4610    Z=             -9.8917  Tot=             87.8064
 Quadrupole moment (field-independent basis, Debye-Ang):
   XX=           -964.1231   YY=           -227.5175   ZZ=           -113.5392
   XY=           -145.9831   XZ=             89.2327   YZ=              7.2644

 Normal termination of Gaussian 16 at Fri Oct 11 16:15:17 2024.
