 Gaussian 16, Revision C.01,
 Gaussian 16:  ES64L-G16RevC.01  3-Jul-2019

 ----------------------------------------------------------------------
 # wb97xd def2svp scrf=(smd,solvent=acetonitrile) g09default scf=(xqc,m
 axcycle=64) force guess=read nosymm
 ----------------------------------------------------------------------

 ----------
 Title Card
 ----------
 Symbolic Z-matrix:
 Charge = -1 Multiplicity = 2

                          Input orientation:
 ---------------------------------------------------------------------
 Center     Atomic      Atomic             Coordinates (Angstroms)
 Number     Number       Type             X           Y           Z
 ---------------------------------------------------------------------
      1          6           0       -8.951872   -0.915533    1.107092
      2          6           0       -8.948292    0.471083    1.249304
      3          6           0       -8.254209   -2.114198    0.983893
      4          6           0       -7.047541   -2.806788    0.896631
      5          6           0       -9.644971   -2.115584    0.996661
      6          6           0      -10.850699   -2.810983    0.941868
      7          6           0      -10.165625    1.196130    1.342876
      8          7           0      -11.168053    1.778912    1.421029
      9          6           0       -7.714084    1.167721    1.322320
     10          7           0       -6.693852    1.720465    1.383830
     11          6           0       -5.813519   -2.107136    0.947311
     12          7           0       -4.807060   -1.527474    0.985983
     13          6           0       -7.032663   -4.217621    0.734826
     14          7           0       -7.028542   -5.371732    0.599118
     15          6           0      -10.841167   -4.226333    0.839986
     16          7           0      -10.793914   -5.384918    0.762612
     17          6           0      -12.080295   -2.104311    0.989348
     18          7           0      -13.073535   -1.501880    1.024116
 ---------------------------------------------------------------------

 SCF Done:  E(UwB97XD) =  -784.860659745     A.U. after   12 cycles

 Alpha  occ. eigenvalues --  -14.45943 -14.45933 -14.45928 -14.45919 -14.45914
 Alpha  occ. eigenvalues --  -14.45900 -10.38251 -10.38188 -10.38162 -10.38050
 Alpha  occ. eigenvalues --  -10.38038 -10.38012 -10.36118 -10.36105 -10.36100
 Alpha  occ. eigenvalues --  -10.36091 -10.36082 -10.36069  -1.06690  -1.01958
 Alpha  occ. eigenvalues --   -1.01955  -1.01572  -1.00747  -1.00739  -1.00667
 Alpha  occ. eigenvalues --   -0.92074  -0.92046  -0.90105  -0.72251  -0.72197
 Alpha  occ. eigenvalues --   -0.68769  -0.68593  -0.68483  -0.67744  -0.55730
 Alpha  occ. eigenvalues --   -0.50895  -0.50886  -0.49761  -0.49690  -0.47621
 Alpha  occ. eigenvalues --   -0.47513  -0.47509  -0.47017  -0.46784  -0.46747
 Alpha  occ. eigenvalues --   -0.46631  -0.45189  -0.44861  -0.44848  -0.44686
 Alpha  occ. eigenvalues --   -0.44386  -0.44363  -0.42950  -0.42764  -0.42741
 Alpha  occ. eigenvalues --   -0.35271  -0.35262  -0.27998
 Alpha virt. eigenvalues --    0.04787   0.04857   0.06471   0.06874   0.06952
 Alpha virt. eigenvalues --    0.10211   0.10251   0.10521   0.10630   0.12407
 Alpha virt. eigenvalues --    0.12558   0.14490   0.19341   0.19393   0.20960

  Beta  occ. eigenvalues --  -14.45750 -14.45740 -14.45736 -14.45728 -14.45721
  Beta  occ. eigenvalues --  -14.45709 -10.38288 -10.38225 -10.38198 -10.37699
  Beta  occ. eigenvalues --  -10.37686 -10.37661 -10.36210 -10.36197 -10.36191
  Beta  occ. eigenvalues --  -10.36182 -10.36174 -10.36161  -1.06294  -1.01607
  Beta  occ. eigenvalues --   -1.01604  -1.01219  -1.00416  -1.00407  -1.00337
  Beta  occ. eigenvalues --   -0.91311  -0.91280  -0.89129  -0.72119  -0.72061
  Beta  occ. eigenvalues --   -0.68553  -0.68378  -0.68221  -0.67586  -0.54958
  Beta  occ. eigenvalues --   -0.49685  -0.49596  -0.49581  -0.49544  -0.47262
  Beta  occ. eigenvalues --   -0.47154  -0.47150  -0.46658  -0.46502  -0.46466
  Beta  occ. eigenvalues --   -0.45471  -0.45086  -0.44241  -0.44219  -0.43928
  Beta  occ. eigenvalues --   -0.43913  -0.43882  -0.42805  -0.42624  -0.42601
  Beta  occ. eigenvalues --   -0.32271  -0.32257
  Beta virt. eigenvalues --   -0.10707   0.05483   0.05551   0.06582   0.06973
  Beta virt. eigenvalues --    0.07049   0.10520   0.11246   0.11285   0.11406
  Beta virt. eigenvalues --    0.12452   0.12602   0.14744   0.19537   0.19589

 Mulliken charges and spin densities:
               1          2
     1  C    0.182776  -0.051145
     2  C   -0.377684   0.305823
     3  C    0.186283  -0.051398
     4  C   -0.380193   0.305884
     5  C    0.176316  -0.050750
     6  C   -0.372496   0.305688
     7  C   -0.084320  -0.072404
     8  N    0.018272   0.111781
     9  C   -0.087114  -0.072127
    10  N    0.015109   0.111408
    11  C   -0.086988  -0.072232
    12  N    0.016821   0.111733
    13  C   -0.086185  -0.072318
    14  N    0.018112   0.111558
    15  C   -0.085275  -0.072197
    16  N    0.014933   0.111353
    17  C   -0.084416  -0.072289
    18  N    0.016050   0.111632
 Sum of Mulliken charges =  -1.00000   1.00000

 Dipole moment (field-independent basis, Debye):
    X=             42.7422    Y=              8.2252    Z=             -4.9462  Tot=             43.8066
 Quadrupole moment (field-independent basis, Debye-Ang):
   XX=           -551.6656   YY=           -184.9710   ZZ=           -104.1216
   XY=            -72.4839   XZ=             44.7531   YZ=              1.2241

 Normal termination of Gaussian 16 at Fri Oct 11 16:14:59 2024.
