 Gaussian 16, Revision C.01,
 Gaussian 16:  ES64L-G16RevC.01  3-Jul-2019

 ----------------------------------------------------------------------
 # wb97xd def2svp scrf=(smd,solvent=acetonitrile) g09default scf=(xqc,m
 axcycle=64) force guess=read nosymm
 ----------------------------------------------------------------------

 ----------
 Title Card
 ----------
 Symbolic Z-matrix:
 Charge = -2 Multiplicity = 1

                          Input orientation:
 ---------------------------------------------------------------------
 Center     Atomic      Atomic             Coordinates (Angstroms)
 Number     Number       Type             X           Y           Z
 ---------------------------------------------------------------------
      1          6           0       -8.951846   -0.915421    1.107282
      2          6           0       -8.947763    0.470996    1.249768
      3          6           0       -8.254237   -2.114096    0.983644
      4          6           0       -7.047693   -2.806415    0.896309
      5          6           0       -9.645067   -2.115455    0.996666
      6          6           0      -10.850650   -2.811209    0.941897
      7          6           0      -10.165164    1.195810    1.343157
      8          7           0      -11.167721    1.778415    1.420934
      9          6           0       -7.713701    1.167955    1.322525
     10          7           0       -6.693429    1.720612    1.383828
     11          6           0       -5.813535   -2.106939    0.947062
     12          7           0       -4.807316   -1.527050    0.986004
     13          6           0       -7.033182   -4.217231    0.734674
     14          7           0       -7.029139   -5.371415    0.598963
     15          6           0      -10.841230   -4.226663    0.840117
     16          7           0      -10.794276   -5.385232    0.762816
     17          6           0      -12.080463   -2.104716    0.989212
     18          7           0      -13.073480   -1.502122    1.023947
 ---------------------------------------------------------------------

 SCF Done:  E(RwB97XD) =  -785.032577654     A.U. after    8 cycles

 Alpha  occ. eigenvalues --  -14.42777 -14.42765 -14.42764 -14.42755 -14.42748
 Alpha  occ. eigenvalues --  -14.42739 -10.34982 -10.34916 -10.34891 -10.33716
 Alpha  occ. eigenvalues --  -10.33702 -10.33698 -10.33689 -10.33680 -10.33670
 Alpha  occ. eigenvalues --  -10.32730 -10.32718 -10.32695  -1.03040  -0.99105
 Alpha  occ. eigenvalues --   -0.99101  -0.98722  -0.98037  -0.98028  -0.97953
 Alpha  occ. eigenvalues --   -0.88201  -0.88176  -0.86083  -0.68785  -0.68728
 Alpha  occ. eigenvalues --   -0.65194  -0.65030  -0.64894  -0.64136  -0.52448
 Alpha  occ. eigenvalues --   -0.47691  -0.47684  -0.46782  -0.46718  -0.45187
 Alpha  occ. eigenvalues --   -0.45072  -0.45068  -0.44535  -0.44213  -0.44164
 Alpha  occ. eigenvalues --   -0.43844  -0.42831  -0.42243  -0.42229  -0.42053
 Alpha  occ. eigenvalues --   -0.41951  -0.41929  -0.40541  -0.40192  -0.40165
 Alpha  occ. eigenvalues --   -0.31484  -0.31473  -0.23619
 Alpha virt. eigenvalues --    0.07470   0.07540   0.08868   0.09307   0.09381
 Alpha virt. eigenvalues --    0.12698   0.12734   0.13108   0.13155   0.14845
 Alpha virt. eigenvalues --    0.14982   0.16306   0.21085   0.21147   0.24193

 Mulliken charges:
               1
     1  C    0.160425
     2  C   -0.485628
     3  C    0.164505
     4  C   -0.488441
     5  C    0.154912
     6  C   -0.480682
     7  C   -0.133488
     8  N   -0.034683
     9  C   -0.135590
    10  N   -0.037718
    11  C   -0.135727
    12  N   -0.035933
    13  C   -0.135024
    14  N   -0.034967
    15  C   -0.133902
    16  N   -0.038028
    17  C   -0.133252
    18  N   -0.036779
 Sum of Mulliken charges =  -2.00000

 Dipole moment (field-independent basis, Debye):
    X=             85.6852    Y=             16.4621    Z=             -9.8914  Tot=             87.8111
 Quadrupole moment (field-independent basis, Debye-Ang):
   XX=           -964.1937   YY=           -227.5174   ZZ=           -113.5377
   XY=           -146.0182   XZ=             89.2328   YZ=              7.2668

 Normal termination of Gaussian 16 at Fri Oct 11 16:15:58 2024.
