 Gaussian 16, Revision C.01,
 Gaussian 16:  ES64L-G16RevC.01  3-Jul-2019

 ----------------------------------------------------------------------
 # wb97xd def2svp scrf=(smd,solvent=acetonitrile) g09default scf=(xqc,m
 axcycle=64) force guess=read nosymm
 ----------------------------------------------------------------------

 ----------
 Title Card
 ----------
 Symbolic Z-matrix:
 Charge = -1 Multiplicity = 2

                          Input orientation:
 ---------------------------------------------------------------------
 Center     Atomic      Atomic             Coordinates (Angstroms)
 Number     Number       Type             X           Y           Z
 ---------------------------------------------------------------------
      1          6           0       -8.951846   -0.915421    1.107282
      2          6           0       -8.947763    0.470996    1.249768
      3          6           0       -8.254237   -2.114096    0.983644
      4          6           0       -7.047693   -2.806415    0.896309
      5          6           0       -9.645067   -2.115455    0.996666
      6          6           0      -10.850650   -2.811209    0.941897
      7          6           0      -10.165164    1.195810    1.343157
      8          7           0      -11.167721    1.778415    1.420934
      9          6           0       -7.713701    1.167955    1.322525
     10          7           0       -6.693429    1.720612    1.383828
     11          6           0       -5.813535   -2.106939    0.947062
     12          7           0       -4.807316   -1.527050    0.986004
     13          6           0       -7.033182   -4.217231    0.734674
     14          7           0       -7.029139   -5.371415    0.598963
     15          6           0      -10.841230   -4.226663    0.840117
     16          7           0      -10.794276   -5.385232    0.762816
     17          6           0      -12.080463   -2.104716    0.989212
     18          7           0      -13.073480   -1.502122    1.023947
 ---------------------------------------------------------------------

 SCF Done:  E(UwB97XD) =  -784.860675094     A.U. after   12 cycles

 Alpha  occ. eigenvalues --  -14.45941 -14.45931 -14.45929 -14.45920 -14.45912
 Alpha  occ. eigenvalues --  -14.45901 -10.38249 -10.38185 -10.38163 -10.38047
 Alpha  occ. eigenvalues --  -10.38036 -10.38015 -10.36115 -10.36103 -10.36099
 Alpha  occ. eigenvalues --  -10.36091 -10.36081 -10.36070  -1.06687  -1.01959
 Alpha  occ. eigenvalues --   -1.01956  -1.01573  -1.00749  -1.00739  -1.00668
 Alpha  occ. eigenvalues --   -0.92074  -0.92048  -0.90105  -0.72252  -0.72197
 Alpha  occ. eigenvalues --   -0.68765  -0.68597  -0.68482  -0.67746  -0.55730
 Alpha  occ. eigenvalues --   -0.50896  -0.50887  -0.49761  -0.49687  -0.47621
 Alpha  occ. eigenvalues --   -0.47513  -0.47509  -0.47017  -0.46784  -0.46746
 Alpha  occ. eigenvalues --   -0.46631  -0.45190  -0.44863  -0.44848  -0.44687
 Alpha  occ. eigenvalues --   -0.44386  -0.44364  -0.42950  -0.42764  -0.42743
 Alpha  occ. eigenvalues --   -0.35272  -0.35264  -0.27996
 Alpha virt. eigenvalues --    0.04789   0.04856   0.06473   0.06876   0.06954
 Alpha virt. eigenvalues --    0.10214   0.10251   0.10520   0.10632   0.12409
 Alpha virt. eigenvalues --    0.12558   0.14491   0.19343   0.19390   0.20961

  Beta  occ. eigenvalues --  -14.45749 -14.45738 -14.45736 -14.45728 -14.45720
  Beta  occ. eigenvalues --  -14.45710 -10.38285 -10.38222 -10.38199 -10.37696
  Beta  occ. eigenvalues --  -10.37684 -10.37663 -10.36207 -10.36195 -10.36191
  Beta  occ. eigenvalues --  -10.36183 -10.36173 -10.36162  -1.06292  -1.01608
  Beta  occ. eigenvalues --   -1.01605  -1.01219  -1.00419  -1.00408  -1.00338
  Beta  occ. eigenvalues --   -0.91310  -0.91283  -0.89129  -0.72120  -0.72061
  Beta  occ. eigenvalues --   -0.68549  -0.68382  -0.68220  -0.67587  -0.54958
  Beta  occ. eigenvalues --   -0.49686  -0.49596  -0.49580  -0.49542  -0.47261
  Beta  occ. eigenvalues --   -0.47154  -0.47150  -0.46658  -0.46502  -0.46466
  Beta  occ. eigenvalues --   -0.45470  -0.45087  -0.44241  -0.44220  -0.43930
  Beta  occ. eigenvalues --   -0.43913  -0.43883  -0.42805  -0.42623  -0.42603
  Beta  occ. eigenvalues --   -0.32274  -0.32258
  Beta virt. eigenvalues --   -0.10705   0.05485   0.05551   0.06584   0.06975
  Beta virt. eigenvalues --    0.07051   0.10519   0.11249   0.11286   0.11408
  Beta virt. eigenvalues --    0.12454   0.12601   0.14745   0.19538   0.19587

 Mulliken charges and spin densities:
               1          2
     1  C    0.182847  -0.051105
     2  C   -0.377771   0.305780
     3  C    0.186342  -0.051344
     4  C   -0.380231   0.305727
     5  C    0.176437  -0.050769
     6  C   -0.372560   0.305867
     7  C   -0.084475  -0.072378
     8  N    0.018157   0.111775
     9  C   -0.087030  -0.072130
    10  N    0.015263   0.111395
    11  C   -0.087019  -0.072172
    12  N    0.017015   0.111621
    13  C   -0.086229  -0.072291
    14  N    0.017934   0.111545
    15  C   -0.085231  -0.072225
    16  N    0.014986   0.111376
    17  C   -0.084544  -0.072272
    18  N    0.016110   0.111598
 Sum of Mulliken charges =  -1.00000   1.00000

 Dipole moment (field-independent basis, Debye):
    X=             42.7443    Y=              8.2259    Z=             -4.9457  Tot=             43.8086
 Quadrupole moment (field-independent basis, Debye-Ang):
   XX=           -551.6934   YY=           -184.9701   ZZ=           -104.1193
   XY=            -72.5015   XZ=             44.7490   YZ=              1.2271

 Normal termination of Gaussian 16 at Fri Oct 11 16:15:40 2024.
