 Gaussian 16, Revision C.01,
 Gaussian 16:  ES64L-G16RevC.01  3-Jul-2019

 ----------------------------------------------------------------------
 # wb97xd def2svp scrf=(smd,solvent=acetonitrile) g09default scf=(xqc,m
 axcycle=64) force guess=read nosymm
 ----------------------------------------------------------------------

 ----------
 Title Card
 ----------
 Symbolic Z-matrix:
 Charge = -2 Multiplicity = 1

                          Input orientation:
 ---------------------------------------------------------------------
 Center     Atomic      Atomic             Coordinates (Angstroms)
 Number     Number       Type             X           Y           Z
 ---------------------------------------------------------------------
      1          6           0       -8.951584   -0.915395    1.107475
      2          6           0       -8.947199    0.471078    1.250202
      3          6           0       -8.254285   -2.113933    0.983440
      4          6           0       -7.047608   -2.806190    0.895979
      5          6           0       -9.645101   -2.115293    0.996673
      6          6           0      -10.850709   -2.811426    0.941887
      7          6           0      -10.164901    1.195196    1.343319
      8          7           0      -11.167523    1.777740    1.420800
      9          6           0       -7.713356    1.168470    1.322748
     10          7           0       -6.692806    1.720762    1.383751
     11          6           0       -5.813376   -2.106811    0.946811
     12          7           0       -4.807479   -1.526331    0.986136
     13          6           0       -7.033747   -4.216951    0.734620
     14          7           0       -7.029865   -5.371113    0.598957
     15          6           0      -10.841183   -4.226952    0.840128
     16          7           0      -10.794890   -5.385565    0.762795
     17          6           0      -12.080720   -2.105222    0.989124
     18          7           0      -13.073561   -1.502242    1.023958
 ---------------------------------------------------------------------

 SCF Done:  E(RwB97XD) =  -785.032595241     A.U. after    8 cycles

 Alpha  occ. eigenvalues --  -14.42774 -14.42766 -14.42762 -14.42756 -14.42749
 Alpha  occ. eigenvalues --  -14.42741 -10.34983 -10.34916 -10.34896 -10.33713
 Alpha  occ. eigenvalues --  -10.33703 -10.33696 -10.33691 -10.33682 -10.33673
 Alpha  occ. eigenvalues --  -10.32730 -10.32718 -10.32699  -1.03044  -0.99104
 Alpha  occ. eigenvalues --   -0.99100  -0.98722  -0.98036  -0.98027  -0.97952
 Alpha  occ. eigenvalues --   -0.88199  -0.88175  -0.86084  -0.68783  -0.68728
 Alpha  occ. eigenvalues --   -0.65190  -0.65035  -0.64895  -0.64134  -0.52448
 Alpha  occ. eigenvalues --   -0.47691  -0.47684  -0.46782  -0.46721  -0.45187
 Alpha  occ. eigenvalues --   -0.45072  -0.45068  -0.44535  -0.44212  -0.44167
 Alpha  occ. eigenvalues --   -0.43845  -0.42830  -0.42243  -0.42229  -0.42052
 Alpha  occ. eigenvalues --   -0.41951  -0.41928  -0.40541  -0.40191  -0.40166
 Alpha  occ. eigenvalues --   -0.31482  -0.31473  -0.23621
 Alpha virt. eigenvalues --    0.07473   0.07535   0.08867   0.09308   0.09379
 Alpha virt. eigenvalues --    0.12697   0.12733   0.13107   0.13154   0.14843
 Alpha virt. eigenvalues --    0.14979   0.16305   0.21088   0.21145   0.24193

 Mulliken charges:
               1
     1  C    0.160255
     2  C   -0.485589
     3  C    0.164324
     4  C   -0.488327
     5  C    0.155085
     6  C   -0.480730
     7  C   -0.133544
     8  N   -0.034861
     9  C   -0.135450
    10  N   -0.037624
    11  C   -0.135644
    12  N   -0.035859
    13  C   -0.135037
    14  N   -0.035074
    15  C   -0.133770
    16  N   -0.038058
    17  C   -0.133222
    18  N   -0.036874
 Sum of Mulliken charges =  -2.00000

 Dipole moment (field-independent basis, Debye):
    X=             85.6884    Y=             16.4617    Z=             -9.8913  Tot=             87.8142
 Quadrupole moment (field-independent basis, Debye-Ang):
   XX=           -964.2543   YY=           -227.5134   ZZ=           -113.5378
   XY=           -146.0424   XZ=             89.2330   YZ=              7.2678

 Normal termination of Gaussian 16 at Fri Oct 11 16:16:33 2024.
