 Gaussian 16, Revision C.01,
 Gaussian 16:  ES64L-G16RevC.01  3-Jul-2019

 ----------------------------------------------------------------------
 # wb97xd def2svp scrf=(smd,solvent=acetonitrile) g09default scf=(xqc,m
 axcycle=64) force guess=read nosymm
 ----------------------------------------------------------------------

 ----------
 Title Card
 ----------
 Symbolic Z-matrix:
 Charge = -1 Multiplicity = 2

                          Input orientation:
 ---------------------------------------------------------------------
 Center     Atomic      Atomic             Coordinates (Angstroms)
 Number     Number       Type             X           Y           Z
 ---------------------------------------------------------------------
      1          6           0       -8.951584   -0.915395    1.107475
      2          6           0       -8.947199    0.471078    1.250202
      3          6           0       -8.254285   -2.113933    0.983440
      4          6           0       -7.047608   -2.806190    0.895979
      5          6           0       -9.645101   -2.115293    0.996673
      6          6           0      -10.850709   -2.811426    0.941887
      7          6           0      -10.164901    1.195196    1.343319
      8          7           0      -11.167523    1.777740    1.420800
      9          6           0       -7.713356    1.168470    1.322748
     10          7           0       -6.692806    1.720762    1.383751
     11          6           0       -5.813376   -2.106811    0.946811
     12          7           0       -4.807479   -1.526331    0.986136
     13          6           0       -7.033747   -4.216951    0.734620
     14          7           0       -7.029865   -5.371113    0.598957
     15          6           0      -10.841183   -4.226952    0.840128
     16          7           0      -10.794890   -5.385565    0.762795
     17          6           0      -12.080720   -2.105222    0.989124
     18          7           0      -13.073561   -1.502242    1.023958
 ---------------------------------------------------------------------

 SCF Done:  E(UwB97XD) =  -784.860668517     A.U. after    8 cycles

 Alpha  occ. eigenvalues --  -14.45939 -14.45932 -14.45927 -14.45921 -14.45914
 Alpha  occ. eigenvalues --  -14.45904 -10.38250 -10.38185 -10.38167 -10.38046
 Alpha  occ. eigenvalues --  -10.38035 -10.38019 -10.36113 -10.36105 -10.36097
 Alpha  occ. eigenvalues --  -10.36093 -10.36083 -10.36073  -1.06690  -1.01958
 Alpha  occ. eigenvalues --   -1.01955  -1.01573  -1.00748  -1.00738  -1.00667
 Alpha  occ. eigenvalues --   -0.92071  -0.92048  -0.90105  -0.72250  -0.72197
 Alpha  occ. eigenvalues --   -0.68761  -0.68602  -0.68483  -0.67744  -0.55730
 Alpha  occ. eigenvalues --   -0.50895  -0.50887  -0.49761  -0.49690  -0.47621
 Alpha  occ. eigenvalues --   -0.47514  -0.47509  -0.47017  -0.46783  -0.46748
 Alpha  occ. eigenvalues --   -0.46632  -0.45189  -0.44862  -0.44848  -0.44686
 Alpha  occ. eigenvalues --   -0.44386  -0.44364  -0.42950  -0.42763  -0.42743
 Alpha  occ. eigenvalues --   -0.35270  -0.35263  -0.27999
 Alpha virt. eigenvalues --    0.04792   0.04853   0.06473   0.06877   0.06951
 Alpha virt. eigenvalues --    0.10213   0.10250   0.10519   0.10630   0.12408
 Alpha virt. eigenvalues --    0.12554   0.14490   0.19345   0.19389   0.20960

  Beta  occ. eigenvalues --  -14.45747 -14.45739 -14.45734 -14.45729 -14.45722
  Beta  occ. eigenvalues --  -14.45712 -10.38286 -10.38222 -10.38203 -10.37695
  Beta  occ. eigenvalues --  -10.37684 -10.37668 -10.36205 -10.36196 -10.36189
  Beta  occ. eigenvalues --  -10.36185 -10.36175 -10.36165  -1.06295  -1.01607
  Beta  occ. eigenvalues --   -1.01604  -1.01219  -1.00418  -1.00407  -1.00337
  Beta  occ. eigenvalues --   -0.91308  -0.91282  -0.89129  -0.72118  -0.72061
  Beta  occ. eigenvalues --   -0.68545  -0.68386  -0.68221  -0.67585  -0.54958
  Beta  occ. eigenvalues --   -0.49686  -0.49596  -0.49582  -0.49542  -0.47262
  Beta  occ. eigenvalues --   -0.47154  -0.47150  -0.46658  -0.46501  -0.46468
  Beta  occ. eigenvalues --   -0.45471  -0.45086  -0.44241  -0.44220  -0.43929
  Beta  occ. eigenvalues --   -0.43913  -0.43882  -0.42805  -0.42622  -0.42603
  Beta  occ. eigenvalues --   -0.32270  -0.32257
  Beta virt. eigenvalues --   -0.10707   0.05487   0.05547   0.06584   0.06976
  Beta virt. eigenvalues --    0.07048   0.10518   0.11248   0.11284   0.11406
  Beta virt. eigenvalues --    0.12453   0.12598   0.14744   0.19541   0.19585

 Mulliken charges and spin densities:
               1          2
     1  C    0.182676  -0.051122
     2  C   -0.377732   0.305790
     3  C    0.186139  -0.051354
     4  C   -0.380112   0.305741
     5  C    0.176597  -0.050829
     6  C   -0.372591   0.305892
     7  C   -0.084555  -0.072368
     8  N    0.017991   0.111798
     9  C   -0.086859  -0.072174
    10  N    0.015363   0.111438
    11  C   -0.086915  -0.072201
    12  N    0.017087   0.111638
    13  C   -0.086262  -0.072275
    14  N    0.017832   0.111553
    15  C   -0.085128  -0.072234
    16  N    0.014951   0.111374
    17  C   -0.084506  -0.072293
    18  N    0.016022   0.111624
 Sum of Mulliken charges =  -1.00000   1.00000

 Dipole moment (field-independent basis, Debye):
    X=             42.7478    Y=              8.2261    Z=             -4.9455  Tot=             43.8121
 Quadrupole moment (field-independent basis, Debye-Ang):
   XX=           -551.7576   YY=           -184.9677   ZZ=           -104.1190
   XY=            -72.5241   XZ=             44.7482   YZ=              1.2298

 Normal termination of Gaussian 16 at Fri Oct 11 16:16:17 2024.
