 Gaussian 16, Revision C.01,
 Gaussian 16:  ES64L-G16RevC.01  3-Jul-2019

 ----------------------------------------------------------------------
 # wb97xd def2svp scrf=(smd,solvent=acetonitrile) g09default scf=(xqc,m
 axcycle=64) force guess=read nosymm
 ----------------------------------------------------------------------

 ----------
 Title Card
 ----------
 Symbolic Z-matrix:
 Charge = -2 Multiplicity = 1

                          Input orientation:
 ---------------------------------------------------------------------
 Center     Atomic      Atomic             Coordinates (Angstroms)
 Number     Number       Type             X           Y           Z
 ---------------------------------------------------------------------
      1          6           0       -8.950962   -0.915340    1.107727
      2          6           0       -8.946329    0.470952    1.250752
      3          6           0       -8.254113   -2.113825    0.983192
      4          6           0       -7.047532   -2.805720    0.895493
      5          6           0       -9.645100   -2.114976    0.996688
      6          6           0      -10.850450   -2.811518    0.941819
      7          6           0      -10.164793    1.193699    1.343382
      8          7           0      -11.167328    1.776277    1.420486
      9          6           0       -7.712759    1.169271    1.323038
     10          7           0       -6.691864    1.720956    1.383500
     11          6           0       -5.813223   -2.106489    0.946499
     12          7           0       -4.807825   -1.524985    0.986527
     13          6           0       -7.034789   -4.216498    0.734727
     14          7           0       -7.031283   -5.370668    0.599301
     15          6           0      -10.840805   -4.227158    0.839897
     16          7           0      -10.796155   -5.385828    0.762344
     17          6           0      -12.080993   -2.105903    0.989137
     18          7           0      -13.073591   -1.502425    1.024295
 ---------------------------------------------------------------------

 SCF Done:  E(RwB97XD) =  -785.032592015     A.U. after    8 cycles

 Alpha  occ. eigenvalues --  -14.42771 -14.42768 -14.42761 -14.42757 -14.42753
 Alpha  occ. eigenvalues --  -14.42744 -10.34978 -10.34910 -10.34896 -10.33707
 Alpha  occ. eigenvalues --  -10.33706 -10.33694 -10.33692 -10.33687 -10.33677
 Alpha  occ. eigenvalues --  -10.32727 -10.32716 -10.32704  -1.03042  -0.99104
 Alpha  occ. eigenvalues --   -0.99099  -0.98721  -0.98036  -0.98028  -0.97952
 Alpha  occ. eigenvalues --   -0.88198  -0.88177  -0.86082  -0.68780  -0.68728
 Alpha  occ. eigenvalues --   -0.65183  -0.65042  -0.64896  -0.64133  -0.52448
 Alpha  occ. eigenvalues --   -0.47689  -0.47684  -0.46779  -0.46722  -0.45187
 Alpha  occ. eigenvalues --   -0.45073  -0.45068  -0.44535  -0.44209  -0.44169
 Alpha  occ. eigenvalues --   -0.43843  -0.42830  -0.42242  -0.42230  -0.42052
 Alpha  occ. eigenvalues --   -0.41952  -0.41930  -0.40541  -0.40188  -0.40166
 Alpha  occ. eigenvalues --   -0.31482  -0.31475  -0.23619
 Alpha virt. eigenvalues --    0.07480   0.07533   0.08868   0.09311   0.09376
 Alpha virt. eigenvalues --    0.12697   0.12730   0.13104   0.13153   0.14843
 Alpha virt. eigenvalues --    0.14974   0.16306   0.21091   0.21141   0.24192

 Mulliken charges:
               1
     1  C    0.159947
     2  C   -0.485586
     3  C    0.164178
     4  C   -0.488150
     5  C    0.155557
     6  C   -0.480889
     7  C   -0.133763
     8  N   -0.035003
     9  C   -0.135418
    10  N   -0.037285
    11  C   -0.135542
    12  N   -0.035748
    13  C   -0.135125
    14  N   -0.035230
    15  C   -0.133700
    16  N   -0.038040
    17  C   -0.133294
    18  N   -0.036910
 Sum of Mulliken charges =  -2.00000

 Dipole moment (field-independent basis, Debye):
    X=             85.6956    Y=             16.4613    Z=             -9.8915  Tot=             87.8211
 Quadrupole moment (field-independent basis, Debye-Ang):
   XX=           -964.3758   YY=           -227.4926   ZZ=           -113.5372
   XY=           -146.0938   XZ=             89.2362   YZ=              7.2715

 Normal termination of Gaussian 16 at Fri Oct 11 16:17:13 2024.
