 Gaussian 16, Revision C.01,
 Gaussian 16:  ES64L-G16RevC.01  3-Jul-2019

 ----------------------------------------------------------------------
 # wb97xd def2svp scrf=(smd,solvent=acetonitrile) g09default scf=(xqc,m
 axcycle=64) force guess=read nosymm
 ----------------------------------------------------------------------

 ----------
 Title Card
 ----------
 Symbolic Z-matrix:
 Charge = -1 Multiplicity = 2

                          Input orientation:
 ---------------------------------------------------------------------
 Center     Atomic      Atomic             Coordinates (Angstroms)
 Number     Number       Type             X           Y           Z
 ---------------------------------------------------------------------
      1          6           0       -8.950962   -0.915340    1.107727
      2          6           0       -8.946329    0.470952    1.250752
      3          6           0       -8.254113   -2.113825    0.983192
      4          6           0       -7.047532   -2.805720    0.895493
      5          6           0       -9.645100   -2.114976    0.996688
      6          6           0      -10.850450   -2.811518    0.941819
      7          6           0      -10.164793    1.193699    1.343382
      8          7           0      -11.167328    1.776277    1.420486
      9          6           0       -7.712759    1.169271    1.323038
     10          7           0       -6.691864    1.720956    1.383500
     11          6           0       -5.813223   -2.106489    0.946499
     12          7           0       -4.807825   -1.524985    0.986527
     13          6           0       -7.034789   -4.216498    0.734727
     14          7           0       -7.031283   -5.370668    0.599301
     15          6           0      -10.840805   -4.227158    0.839897
     16          7           0      -10.796155   -5.385828    0.762344
     17          6           0      -12.080993   -2.105903    0.989137
     18          7           0      -13.073591   -1.502425    1.024295
 ---------------------------------------------------------------------

 SCF Done:  E(UwB97XD) =  -784.860688067     A.U. after   12 cycles

 Alpha  occ. eigenvalues --  -14.45936 -14.45933 -14.45925 -14.45921 -14.45917
 Alpha  occ. eigenvalues --  -14.45908 -10.38246 -10.38179 -10.38168 -10.38042
 Alpha  occ. eigenvalues --  -10.38034 -10.38023 -10.36108 -10.36107 -10.36095
 Alpha  occ. eigenvalues --  -10.36093 -10.36087 -10.36078  -1.06689  -1.01958
 Alpha  occ. eigenvalues --   -1.01954  -1.01572  -1.00747  -1.00739  -1.00667
 Alpha  occ. eigenvalues --   -0.92070  -0.92050  -0.90104  -0.72248  -0.72197
 Alpha  occ. eigenvalues --   -0.68753  -0.68610  -0.68484  -0.67744  -0.55730
 Alpha  occ. eigenvalues --   -0.50894  -0.50886  -0.49758  -0.49691  -0.47621
 Alpha  occ. eigenvalues --   -0.47514  -0.47509  -0.47017  -0.46781  -0.46750
 Alpha  occ. eigenvalues --   -0.46630  -0.45189  -0.44862  -0.44849  -0.44686
 Alpha  occ. eigenvalues --   -0.44386  -0.44365  -0.42950  -0.42760  -0.42743
 Alpha  occ. eigenvalues --   -0.35271  -0.35265  -0.27997
 Alpha virt. eigenvalues --    0.04799   0.04850   0.06473   0.06881   0.06948
 Alpha virt. eigenvalues --    0.10213   0.10247   0.10516   0.10629   0.12407
 Alpha virt. eigenvalues --    0.12549   0.14491   0.19348   0.19384   0.20960

  Beta  occ. eigenvalues --  -14.45743 -14.45741 -14.45733 -14.45729 -14.45725
  Beta  occ. eigenvalues --  -14.45716 -10.38282 -10.38216 -10.38204 -10.37691
  Beta  occ. eigenvalues --  -10.37683 -10.37671 -10.36200 -10.36199 -10.36186
  Beta  occ. eigenvalues --  -10.36185 -10.36179 -10.36170  -1.06294  -1.01607
  Beta  occ. eigenvalues --   -1.01603  -1.01218  -1.00417  -1.00408  -1.00337
  Beta  occ. eigenvalues --   -0.91307  -0.91285  -0.89128  -0.72115  -0.72061
  Beta  occ. eigenvalues --   -0.68537  -0.68394  -0.68223  -0.67585  -0.54958
  Beta  occ. eigenvalues --   -0.49683  -0.49595  -0.49583  -0.49540  -0.47262
  Beta  occ. eigenvalues --   -0.47154  -0.47150  -0.46658  -0.46499  -0.46469
  Beta  occ. eigenvalues --   -0.45470  -0.45086  -0.44241  -0.44221  -0.43929
  Beta  occ. eigenvalues --   -0.43914  -0.43883  -0.42805  -0.42620  -0.42604
  Beta  occ. eigenvalues --   -0.32271  -0.32260
  Beta virt. eigenvalues --   -0.10705   0.05494   0.05545   0.06585   0.06980
  Beta virt. eigenvalues --    0.07046   0.10515   0.11248   0.11282   0.11405
  Beta virt. eigenvalues --    0.12452   0.12593   0.14745   0.19544   0.19581

 Mulliken charges and spin densities:
               1          2
     1  C    0.182378  -0.051111
     2  C   -0.377691   0.305917
     3  C    0.185994  -0.051271
     4  C   -0.379986   0.305616
     5  C    0.177067  -0.050832
     6  C   -0.372734   0.305890
     7  C   -0.084807  -0.072331
     8  N    0.017861   0.111784
     9  C   -0.086751  -0.072210
    10  N    0.015693   0.111423
    11  C   -0.086782  -0.072235
    12  N    0.017194   0.111653
    13  C   -0.086389  -0.072200
    14  N    0.017667   0.111485
    15  C   -0.085108  -0.072213
    16  N    0.014962   0.111333
    17  C   -0.084552  -0.072290
    18  N    0.015983   0.111594
 Sum of Mulliken charges =  -1.00000   1.00000

 Dipole moment (field-independent basis, Debye):
    X=             42.7549    Y=              8.2276    Z=             -4.9455  Tot=             43.8193
 Quadrupole moment (field-independent basis, Debye-Ang):
   XX=           -551.8804   YY=           -184.9590   ZZ=           -104.1175
   XY=            -72.5812   XZ=             44.7497   YZ=              1.2367

 Normal termination of Gaussian 16 at Fri Oct 11 16:16:56 2024.
