 Gaussian 16, Revision C.01,
 Gaussian 16:  ES64L-G16RevC.01  3-Jul-2019

 ----------------------------------------------------------------------
 # wb97xd def2svp scrf=(smd,solvent=acetonitrile) g09default scf=(xqc,m
 axcycle=64) force guess=read nosymm
 ----------------------------------------------------------------------

 ----------
 Title Card
 ----------
 Symbolic Z-matrix:
 Charge = -2 Multiplicity = 1

                          Input orientation:
 ---------------------------------------------------------------------
 Center     Atomic      Atomic             Coordinates (Angstroms)
 Number     Number       Type             X           Y           Z
 ---------------------------------------------------------------------
      1          6           0       -8.950791   -0.915223    1.107784
      2          6           0       -8.946127    0.470892    1.250836
      3          6           0       -8.254024   -2.113826    0.983145
      4          6           0       -7.047540   -2.805664    0.895405
      5          6           0       -9.645056   -2.114951    0.996687
      6          6           0      -10.850333   -2.811475    0.941793
      7          6           0      -10.164714    1.193435    1.343389
      8          7           0      -11.167376    1.775822    1.420385
      9          6           0       -7.712700    1.169406    1.323073
     10          7           0       -6.691724    1.720975    1.383419
     11          6           0       -5.813126   -2.106401    0.946468
     12          7           0       -4.808022   -1.524669    0.986640
     13          6           0       -7.034896   -4.216423    0.734762
     14          7           0       -7.031690   -5.370582    0.599467
     15          6           0      -10.840764   -4.227141    0.839788
     16          7           0      -10.796499   -5.385778    0.762151
     17          6           0      -12.081020   -2.106031    0.989178
     18          7           0      -13.073489   -1.502544    1.024434
 ---------------------------------------------------------------------

 SCF Done:  E(RwB97XD) =  -785.032579974     A.U. after    8 cycles

 Alpha  occ. eigenvalues --  -14.42770 -14.42767 -14.42759 -14.42756 -14.42751
 Alpha  occ. eigenvalues --  -14.42745 -10.34977 -10.34908 -10.34895 -10.33707
 Alpha  occ. eigenvalues --  -10.33704 -10.33692 -10.33691 -10.33685 -10.33677
 Alpha  occ. eigenvalues --  -10.32725 -10.32715 -10.32703  -1.03037  -0.99105
 Alpha  occ. eigenvalues --   -0.99102  -0.98722  -0.98038  -0.98029  -0.97954
 Alpha  occ. eigenvalues --   -0.88199  -0.88178  -0.86081  -0.68780  -0.68729
 Alpha  occ. eigenvalues --   -0.65181  -0.65043  -0.64895  -0.64134  -0.52447
 Alpha  occ. eigenvalues --   -0.47690  -0.47684  -0.46776  -0.46721  -0.45187
 Alpha  occ. eigenvalues --   -0.45073  -0.45068  -0.44535  -0.44208  -0.44169
 Alpha  occ. eigenvalues --   -0.43842  -0.42831  -0.42244  -0.42231  -0.42053
 Alpha  occ. eigenvalues --   -0.41953  -0.41931  -0.40542  -0.40189  -0.40166
 Alpha  occ. eigenvalues --   -0.31484  -0.31476  -0.23617
 Alpha virt. eigenvalues --    0.07482   0.07533   0.08871   0.09314   0.09378
 Alpha virt. eigenvalues --    0.12700   0.12732   0.13104   0.13155   0.14845
 Alpha virt. eigenvalues --    0.14974   0.16306   0.21092   0.21140   0.24194

 Mulliken charges:
               1
     1  C    0.160001
     2  C   -0.485604
     3  C    0.164163
     4  C   -0.488174
     5  C    0.155658
     6  C   -0.481003
     7  C   -0.133790
     8  N   -0.035045
     9  C   -0.135412
    10  N   -0.037252
    11  C   -0.135633
    12  N   -0.035565
    13  C   -0.135177
    14  N   -0.035253
    15  C   -0.133758
    16  N   -0.037995
    17  C   -0.133396
    18  N   -0.036766
 Sum of Mulliken charges =  -2.00000

 Dipole moment (field-independent basis, Debye):
    X=             85.6980    Y=             16.4628    Z=             -9.8914  Tot=             87.8237
 Quadrupole moment (field-independent basis, Debye-Ang):
   XX=           -964.4071   YY=           -227.4891   ZZ=           -113.5359
   XY=           -146.1230   XZ=             89.2366   YZ=              7.2744

 Normal termination of Gaussian 16 at Fri Oct 11 16:17:52 2024.
