 Gaussian 16, Revision C.01,
 Gaussian 16:  ES64L-G16RevC.01  3-Jul-2019

 ----------------------------------------------------------------------
 # wb97xd def2svp scrf=(smd,solvent=acetonitrile) g09default scf=(xqc,m
 axcycle=64) force guess=read nosymm
 ----------------------------------------------------------------------

 ----------
 Title Card
 ----------
 Symbolic Z-matrix:
 Charge = -1 Multiplicity = 2

                          Input orientation:
 ---------------------------------------------------------------------
 Center     Atomic      Atomic             Coordinates (Angstroms)
 Number     Number       Type             X           Y           Z
 ---------------------------------------------------------------------
      1          6           0       -8.950791   -0.915223    1.107784
      2          6           0       -8.946127    0.470892    1.250836
      3          6           0       -8.254024   -2.113826    0.983145
      4          6           0       -7.047540   -2.805664    0.895405
      5          6           0       -9.645056   -2.114951    0.996687
      6          6           0      -10.850333   -2.811475    0.941793
      7          6           0      -10.164714    1.193435    1.343389
      8          7           0      -11.167376    1.775822    1.420385
      9          6           0       -7.712700    1.169406    1.323073
     10          7           0       -6.691724    1.720975    1.383419
     11          6           0       -5.813126   -2.106401    0.946468
     12          7           0       -4.808022   -1.524669    0.986640
     13          6           0       -7.034896   -4.216423    0.734762
     14          7           0       -7.031690   -5.370582    0.599467
     15          6           0      -10.840764   -4.227141    0.839788
     16          7           0      -10.796499   -5.385778    0.762151
     17          6           0      -12.081020   -2.106031    0.989178
     18          7           0      -13.073489   -1.502544    1.024434
 ---------------------------------------------------------------------

 SCF Done:  E(UwB97XD) =  -784.860703123     A.U. after   11 cycles

 Alpha  occ. eigenvalues --  -14.45935 -14.45931 -14.45923 -14.45920 -14.45915
 Alpha  occ. eigenvalues --  -14.45908 -10.38245 -10.38178 -10.38167 -10.38041
 Alpha  occ. eigenvalues --  -10.38032 -10.38023 -10.36107 -10.36105 -10.36094
 Alpha  occ. eigenvalues --  -10.36092 -10.36085 -10.36078  -1.06685  -1.01959
 Alpha  occ. eigenvalues --   -1.01956  -1.01572  -1.00750  -1.00740  -1.00669
 Alpha  occ. eigenvalues --   -0.92072  -0.92051  -0.90103  -0.72248  -0.72198
 Alpha  occ. eigenvalues --   -0.68752  -0.68611  -0.68483  -0.67745  -0.55730
 Alpha  occ. eigenvalues --   -0.50894  -0.50887  -0.49755  -0.49690  -0.47621
 Alpha  occ. eigenvalues --   -0.47514  -0.47508  -0.47016  -0.46780  -0.46749
 Alpha  occ. eigenvalues --   -0.46629  -0.45190  -0.44863  -0.44850  -0.44687
 Alpha  occ. eigenvalues --   -0.44387  -0.44366  -0.42951  -0.42762  -0.42744
 Alpha  occ. eigenvalues --   -0.35272  -0.35266  -0.27994
 Alpha virt. eigenvalues --    0.04800   0.04849   0.06476   0.06883   0.06951
 Alpha virt. eigenvalues --    0.10216   0.10249   0.10515   0.10632   0.12410
 Alpha virt. eigenvalues --    0.12549   0.14491   0.19349   0.19384   0.20961

  Beta  occ. eigenvalues --  -14.45742 -14.45739 -14.45731 -14.45728 -14.45723
  Beta  occ. eigenvalues --  -14.45716 -10.38281 -10.38214 -10.38203 -10.37690
  Beta  occ. eigenvalues --  -10.37681 -10.37671 -10.36199 -10.36197 -10.36185
  Beta  occ. eigenvalues --  -10.36184 -10.36177 -10.36170  -1.06289  -1.01608
  Beta  occ. eigenvalues --   -1.01605  -1.01219  -1.00419  -1.00409  -1.00339
  Beta  occ. eigenvalues --   -0.91308  -0.91286  -0.89127  -0.72115  -0.72062
  Beta  occ. eigenvalues --   -0.68536  -0.68396  -0.68221  -0.67586  -0.54957
  Beta  occ. eigenvalues --   -0.49681  -0.49596  -0.49582  -0.49540  -0.47262
  Beta  occ. eigenvalues --   -0.47154  -0.47149  -0.46658  -0.46498  -0.46470
  Beta  occ. eigenvalues --   -0.45469  -0.45088  -0.44242  -0.44222  -0.43930
  Beta  occ. eigenvalues --   -0.43915  -0.43884  -0.42806  -0.42621  -0.42604
  Beta  occ. eigenvalues --   -0.32274  -0.32263
  Beta virt. eigenvalues --   -0.10702   0.05496   0.05545   0.06587   0.06982
  Beta virt. eigenvalues --    0.07048   0.10515   0.11250   0.11283   0.11407
  Beta virt. eigenvalues --    0.12455   0.12593   0.14745   0.19544   0.19580

 Mulliken charges and spin densities:
               1          2
     1  C    0.182461  -0.051058
     2  C   -0.377751   0.305811
     3  C    0.185982  -0.051251
     4  C   -0.379994   0.305668
     5  C    0.177182  -0.050819
     6  C   -0.372834   0.305927
     7  C   -0.084847  -0.072299
     8  N    0.017811   0.111744
     9  C   -0.086744  -0.072197
    10  N    0.015720   0.111408
    11  C   -0.086865  -0.072185
    12  N    0.017352   0.111555
    13  C   -0.086438  -0.072203
    14  N    0.017654   0.111503
    15  C   -0.085166  -0.072199
    16  N    0.015005   0.111315
    17  C   -0.084643  -0.072258
    18  N    0.016114   0.111540
 Sum of Mulliken charges =  -1.00000   1.00000

 Dipole moment (field-independent basis, Debye):
    X=             42.7573    Y=              8.2277    Z=             -4.9456  Tot=             43.8217
 Quadrupole moment (field-independent basis, Debye-Ang):
   XX=           -551.9151   YY=           -184.9534   ZZ=           -104.1164
   XY=            -72.5959   XZ=             44.7517   YZ=              1.2385

 Normal termination of Gaussian 16 at Fri Oct 11 16:17:35 2024.
