 Gaussian 16, Revision C.01,
 Gaussian 16:  ES64L-G16RevC.01  3-Jul-2019

 ----------------------------------------------------------------------
 # wb97xd def2svp scrf=(smd,solvent=acetonitrile) g09default scf=(xqc,m
 axcycle=64) force guess=read nosymm
 ----------------------------------------------------------------------

 ----------
 Title Card
 ----------
 Symbolic Z-matrix:
 Charge = -2 Multiplicity = 1

                          Input orientation:
 ---------------------------------------------------------------------
 Center     Atomic      Atomic             Coordinates (Angstroms)
 Number     Number       Type             X           Y           Z
 ---------------------------------------------------------------------
      1          6           0       -8.950272   -0.915163    1.108056
      2          6           0       -8.945264    0.470969    1.251447
      3          6           0       -8.253917   -2.113664    0.982888
      4          6           0       -7.047335   -2.805329    0.894896
      5          6           0       -9.644964   -2.114667    0.996698
      6          6           0      -10.850204   -2.811673    0.941731
      7          6           0      -10.164390    1.192460    1.343582
      8          7           0      -11.167363    1.774324    1.420089
      9          6           0       -7.712055    1.170096    1.323381
     10          7           0       -6.690799    1.721247    1.383205
     11          6           0       -5.812967   -2.106047    0.946171
     12          7           0       -4.808369   -1.523337    0.986954
     13          6           0       -7.035622   -4.216058    0.734718
     14          7           0       -7.033213   -5.370266    0.599725
     15          6           0      -10.840651   -4.227393    0.839590
     16          7           0      -10.797716   -5.386113    0.761805
     17          6           0      -12.081236   -2.106705    0.989196
     18          7           0      -13.073556   -1.502858    1.024676
 ---------------------------------------------------------------------

 SCF Done:  E(RwB97XD) =  -785.032596046     A.U. after    8 cycles

 Alpha  occ. eigenvalues --  -14.42770 -14.42765 -14.42759 -14.42757 -14.42753
 Alpha  occ. eigenvalues --  -14.42748 -10.34977 -10.34906 -10.34899 -10.33706
 Alpha  occ. eigenvalues --  -10.33703 -10.33693 -10.33690 -10.33688 -10.33681
 Alpha  occ. eigenvalues --  -10.32724 -10.32715 -10.32707  -1.03041  -0.99104
 Alpha  occ. eigenvalues --   -0.99100  -0.98721  -0.98037  -0.98029  -0.97953
 Alpha  occ. eigenvalues --   -0.88197  -0.88178  -0.86081  -0.68778  -0.68729
 Alpha  occ. eigenvalues --   -0.65174  -0.65050  -0.64897  -0.64132  -0.52448
 Alpha  occ. eigenvalues --   -0.47689  -0.47684  -0.46776  -0.46723  -0.45187
 Alpha  occ. eigenvalues --   -0.45073  -0.45068  -0.44535  -0.44207  -0.44171
 Alpha  occ. eigenvalues --   -0.43842  -0.42830  -0.42243  -0.42231  -0.42053
 Alpha  occ. eigenvalues --   -0.41952  -0.41932  -0.40542  -0.40187  -0.40166
 Alpha  occ. eigenvalues --   -0.31482  -0.31476  -0.23618
 Alpha virt. eigenvalues --    0.07486   0.07529   0.08871   0.09316   0.09375
 Alpha virt. eigenvalues --    0.12699   0.12729   0.13101   0.13153   0.14844
 Alpha virt. eigenvalues --    0.14967   0.16306   0.21095   0.21137   0.24193

 Mulliken charges:
               1
     1  C    0.159755
     2  C   -0.485542
     3  C    0.163939
     4  C   -0.487945
     5  C    0.155938
     6  C   -0.481135
     7  C   -0.133900
     8  N   -0.035238
     9  C   -0.135261
    10  N   -0.037071
    11  C   -0.135485
    12  N   -0.035534
    13  C   -0.135165
    14  N   -0.035437
    15  C   -0.133617
    16  N   -0.038029
    17  C   -0.133414
    18  N   -0.036859
 Sum of Mulliken charges =  -2.00000

 Dipole moment (field-independent basis, Debye):
    X=             85.7060    Y=             16.4638    Z=             -9.8913  Tot=             87.8317
 Quadrupole moment (field-independent basis, Debye-Ang):
   XX=           -964.5512   YY=           -227.4785   ZZ=           -113.5355
   XY=           -146.1911   XZ=             89.2384   YZ=              7.2792

 Normal termination of Gaussian 16 at Fri Oct 11 16:18:29 2024.
