 Gaussian 16, Revision C.01,
 Gaussian 16:  ES64L-G16RevC.01  3-Jul-2019

 ----------------------------------------------------------------------
 # wb97xd def2svp scrf=(smd,solvent=acetonitrile) g09default scf=(xqc,m
 axcycle=64) force guess=read nosymm
 ----------------------------------------------------------------------

 ----------
 Title Card
 ----------
 Symbolic Z-matrix:
 Charge = -1 Multiplicity = 2

                          Input orientation:
 ---------------------------------------------------------------------
 Center     Atomic      Atomic             Coordinates (Angstroms)
 Number     Number       Type             X           Y           Z
 ---------------------------------------------------------------------
      1          6           0       -8.950272   -0.915163    1.108056
      2          6           0       -8.945264    0.470969    1.251447
      3          6           0       -8.253917   -2.113664    0.982888
      4          6           0       -7.047335   -2.805329    0.894896
      5          6           0       -9.644964   -2.114667    0.996698
      6          6           0      -10.850204   -2.811673    0.941731
      7          6           0      -10.164390    1.192460    1.343582
      8          7           0      -11.167363    1.774324    1.420089
      9          6           0       -7.712055    1.170096    1.323381
     10          7           0       -6.690799    1.721247    1.383205
     11          6           0       -5.812967   -2.106047    0.946171
     12          7           0       -4.808369   -1.523337    0.986954
     13          6           0       -7.035622   -4.216058    0.734718
     14          7           0       -7.033213   -5.370266    0.599725
     15          6           0      -10.840651   -4.227393    0.839590
     16          7           0      -10.797716   -5.386113    0.761805
     17          6           0      -12.081236   -2.106705    0.989196
     18          7           0      -13.073556   -1.502858    1.024676
 ---------------------------------------------------------------------

 SCF Done:  E(UwB97XD) =  -784.860700216     A.U. after    8 cycles

 Alpha  occ. eigenvalues --  -14.45934 -14.45931 -14.45923 -14.45921 -14.45917
 Alpha  occ. eigenvalues --  -14.45911 -10.38246 -10.38176 -10.38170 -10.38040
 Alpha  occ. eigenvalues --  -10.38033 -10.38028 -10.36107 -10.36104 -10.36095
 Alpha  occ. eigenvalues --  -10.36091 -10.36088 -10.36082  -1.06688  -1.01958
 Alpha  occ. eigenvalues --   -1.01954  -1.01572  -1.00748  -1.00739  -1.00668
 Alpha  occ. eigenvalues --   -0.92069  -0.92051  -0.90103  -0.72246  -0.72197
 Alpha  occ. eigenvalues --   -0.68745  -0.68618  -0.68485  -0.67743  -0.55730
 Alpha  occ. eigenvalues --   -0.50893  -0.50886  -0.49754  -0.49693  -0.47621
 Alpha  occ. eigenvalues --   -0.47514  -0.47508  -0.47016  -0.46779  -0.46751
 Alpha  occ. eigenvalues --   -0.46630  -0.45190  -0.44862  -0.44850  -0.44687
 Alpha  occ. eigenvalues --   -0.44387  -0.44367  -0.42950  -0.42760  -0.42743
 Alpha  occ. eigenvalues --   -0.35270  -0.35266  -0.27996
 Alpha virt. eigenvalues --    0.04805   0.04845   0.06477   0.06886   0.06947
 Alpha virt. eigenvalues --    0.10215   0.10246   0.10512   0.10630   0.12408
 Alpha virt. eigenvalues --    0.12542   0.14490   0.19352   0.19381   0.20961

  Beta  occ. eigenvalues --  -14.45742 -14.45738 -14.45731 -14.45729 -14.45725
  Beta  occ. eigenvalues --  -14.45719 -10.38282 -10.38213 -10.38207 -10.37689
  Beta  occ. eigenvalues --  -10.37682 -10.37675 -10.36199 -10.36196 -10.36187
  Beta  occ. eigenvalues --  -10.36183 -10.36180 -10.36173  -1.06293  -1.01607
  Beta  occ. eigenvalues --   -1.01603  -1.01218  -1.00418  -1.00408  -1.00338
  Beta  occ. eigenvalues --   -0.91306  -0.91286  -0.89127  -0.72112  -0.72062
  Beta  occ. eigenvalues --   -0.68529  -0.68402  -0.68223  -0.67584  -0.54958
  Beta  occ. eigenvalues --   -0.49681  -0.49595  -0.49585  -0.49539  -0.47262
  Beta  occ. eigenvalues --   -0.47154  -0.47149  -0.46657  -0.46498  -0.46472
  Beta  occ. eigenvalues --   -0.45469  -0.45087  -0.44242  -0.44222  -0.43929
  Beta  occ. eigenvalues --   -0.43915  -0.43884  -0.42805  -0.42619  -0.42603
  Beta  occ. eigenvalues --   -0.32271  -0.32262
  Beta virt. eigenvalues --   -0.10704   0.05500   0.05541   0.06588   0.06985
  Beta virt. eigenvalues --    0.07044   0.10512   0.11249   0.11280   0.11406
  Beta virt. eigenvalues --    0.12453   0.12586   0.14744   0.19547   0.19578

 Mulliken charges and spin densities:
               1          2
     1  C    0.182209  -0.051084
     2  C   -0.377672   0.305865
     3  C    0.185738  -0.051237
     4  C   -0.379788   0.305615
     5  C    0.177455  -0.050872
     6  C   -0.372936   0.305972
     7  C   -0.084986  -0.072279
     8  N    0.017628   0.111748
     9  C   -0.086553  -0.072232
    10  N    0.015896   0.111419
    11  C   -0.086701  -0.072220
    12  N    0.017382   0.111582
    13  C   -0.086452  -0.072180
    14  N    0.017472   0.111500
    15  C   -0.085058  -0.072221
    16  N    0.014976   0.111339
    17  C   -0.084641  -0.072281
    18  N    0.016032   0.111566
 Sum of Mulliken charges =  -1.00000   1.00000

 Dipole moment (field-independent basis, Debye):
    X=             42.7649    Y=              8.2293    Z=             -4.9454  Tot=             43.8294
 Quadrupole moment (field-independent basis, Debye-Ang):
   XX=           -552.0513   YY=           -184.9465   ZZ=           -104.1154
   XY=            -72.6559   XZ=             44.7523   YZ=              1.2456

 Normal termination of Gaussian 16 at Fri Oct 11 16:18:11 2024.
