 Gaussian 16, Revision C.01,
 Gaussian 16:  ES64L-G16RevC.01  3-Jul-2019

 ----------------------------------------------------------------------
 # wb97xd def2svp scrf=(smd,solvent=acetonitrile) g09default scf=(xqc,m
 axcycle=64) force guess=read nosymm
 ----------------------------------------------------------------------

 ----------
 Title Card
 ----------
 Symbolic Z-matrix:
 Charge = -2 Multiplicity = 1

                          Input orientation:
 ---------------------------------------------------------------------
 Center     Atomic      Atomic             Coordinates (Angstroms)
 Number     Number       Type             X           Y           Z
 ---------------------------------------------------------------------
      1          6           0       -8.939340   -1.011364    1.102387
      2          6           0       -8.938426    0.526161    1.253687
      3          6           0       -8.325910   -2.067603    0.983435
      4          6           0       -6.987791   -2.834877    0.897302
      5          6           0       -9.553501   -2.068479    0.999959
      6          6           0      -10.892466   -2.837003    0.935956
      7          6           0      -10.133251    1.185609    1.336949
      8          7           0      -11.180601    1.724707    1.402486
      9          6           0       -7.742687    1.185987    1.317799
     10          7           0       -6.694705    1.725324    1.372745
     11          6           0       -5.815070   -2.132298    0.951573
     12          7           0       -4.824269   -1.496608    1.000676
     13          6           0       -7.008053   -4.193653    0.751195
     14          7           0       -7.060333   -5.366992    0.626713
     15          6           0      -10.872711   -4.200451    0.821599
     16          7           0      -10.820245   -5.374501    0.727774
     17          6           0      -12.065028   -2.134906    0.995912
     18          7           0      -13.055507   -1.499232    1.050657
 ---------------------------------------------------------------------

 SCF Done:  E(RwB97XD) =  -784.916125932     A.U. after   13 cycles

 Alpha  occ. eigenvalues --  -14.42531 -14.42520 -14.42514 -14.42504 -14.42500
 Alpha  occ. eigenvalues --  -14.42485 -10.36282 -10.35975 -10.35965 -10.33530
 Alpha  occ. eigenvalues --  -10.33517 -10.33511 -10.33502 -10.33494 -10.33481
 Alpha  occ. eigenvalues --  -10.32827 -10.32823 -10.32813  -1.15088  -0.98425
 Alpha  occ. eigenvalues --   -0.98404  -0.98393  -0.97015  -0.96978  -0.96905
 Alpha  occ. eigenvalues --   -0.87489  -0.87475  -0.87022  -0.69500  -0.69469
 Alpha  occ. eigenvalues --   -0.66243  -0.65321  -0.65310  -0.63983  -0.57394
 Alpha  occ. eigenvalues --   -0.49872  -0.49849  -0.47694  -0.47690  -0.46061
 Alpha  occ. eigenvalues --   -0.44848  -0.44727  -0.44724  -0.44370  -0.44363
 Alpha  occ. eigenvalues --   -0.44171  -0.42155  -0.41525  -0.41506  -0.41335
 Alpha  occ. eigenvalues --   -0.41107  -0.41073  -0.39733  -0.39420  -0.39408
 Alpha  occ. eigenvalues --   -0.29569  -0.29562  -0.25875
 Alpha virt. eigenvalues --    0.06954   0.07944   0.07973   0.08519   0.08544
 Alpha virt. eigenvalues --    0.12337   0.12362   0.12646   0.14084   0.14361
 Alpha virt. eigenvalues --    0.14404   0.16054   0.21653   0.21666   0.25000

 Mulliken charges:
               1
     1  C    0.144174
     2  C   -0.464603
     3  C    0.145269
     4  C   -0.464899
     5  C    0.144025
     6  C   -0.465789
     7  C   -0.100004
     8  N   -0.073152
     9  C   -0.099885
    10  N   -0.073383
    11  C   -0.100750
    12  N   -0.071205
    13  C   -0.098856
    14  N   -0.075517
    15  C   -0.100734
    16  N   -0.072374
    17  C   -0.100828
    18  N   -0.071489
 Sum of Mulliken charges =  -2.00000

 Dipole moment (field-independent basis, Debye):
    X=             85.8751    Y=             16.4750    Z=             -9.9014  Tot=             87.9999
 Quadrupole moment (field-independent basis, Debye-Ang):
   XX=           -972.7564   YY=           -232.4677   ZZ=           -112.9505
   XY=           -147.3299   XZ=             89.4018   YZ=              6.8255

 Normal termination of Gaussian 16 at Fri Oct 11 15:32:30 2024.
