 Gaussian 16, Revision C.01,
 Gaussian 16:  ES64L-G16RevC.01  3-Jul-2019

 ----------------------------------------------------------------------
 # wb97xd def2svp scrf=(smd,solvent=acetonitrile) g09default scf=(xqc,m
 axcycle=64) force guess=read nosymm
 ----------------------------------------------------------------------

 ----------
 Title Card
 ----------
 Symbolic Z-matrix:
 Charge = -1 Multiplicity = 2

                          Input orientation:
 ---------------------------------------------------------------------
 Center     Atomic      Atomic             Coordinates (Angstroms)
 Number     Number       Type             X           Y           Z
 ---------------------------------------------------------------------
      1          6           0       -8.939340   -1.011364    1.102387
      2          6           0       -8.938426    0.526161    1.253687
      3          6           0       -8.325910   -2.067603    0.983435
      4          6           0       -6.987791   -2.834877    0.897302
      5          6           0       -9.553501   -2.068479    0.999959
      6          6           0      -10.892466   -2.837003    0.935956
      7          6           0      -10.133251    1.185609    1.336949
      8          7           0      -11.180601    1.724707    1.402486
      9          6           0       -7.742687    1.185987    1.317799
     10          7           0       -6.694705    1.725324    1.372745
     11          6           0       -5.815070   -2.132298    0.951573
     12          7           0       -4.824269   -1.496608    1.000676
     13          6           0       -7.008053   -4.193653    0.751195
     14          7           0       -7.060333   -5.366992    0.626713
     15          6           0      -10.872711   -4.200451    0.821599
     16          7           0      -10.820245   -5.374501    0.727774
     17          6           0      -12.065028   -2.134906    0.995912
     18          7           0      -13.055507   -1.499232    1.050657
 ---------------------------------------------------------------------

 SCF Done:  E(UwB97XD) =  -784.717847466     A.U. after   21 cycles

 Alpha  occ. eigenvalues --  -14.45936 -14.45933 -14.45913 -14.45902 -14.45897
 Alpha  occ. eigenvalues --  -14.45879 -10.39044 -10.38735 -10.38728 -10.37967
 Alpha  occ. eigenvalues --  -10.37902 -10.37876 -10.35986 -10.35980 -10.35961
 Alpha  occ. eigenvalues --  -10.35960 -10.35958 -10.35939  -1.17919  -1.01491
 Alpha  occ. eigenvalues --   -1.01434  -1.01418  -0.99972  -0.99904  -0.99839
 Alpha  occ. eigenvalues --   -0.91261  -0.91239  -0.90832  -0.72601  -0.72571
 Alpha  occ. eigenvalues --   -0.69763  -0.68672  -0.68665  -0.67175  -0.59898
 Alpha  occ. eigenvalues --   -0.52734  -0.52707  -0.50933  -0.50905  -0.49062
 Alpha  occ. eigenvalues --   -0.47481  -0.47370  -0.47355  -0.47015  -0.47001
 Alpha  occ. eigenvalues --   -0.46843  -0.44605  -0.44365  -0.44319  -0.44172
 Alpha  occ. eigenvalues --   -0.43619  -0.43593  -0.42289  -0.42027  -0.42024
 Alpha  occ. eigenvalues --   -0.33474  -0.33433  -0.30185
 Alpha virt. eigenvalues --    0.04378   0.05712   0.05742   0.06019   0.06029
 Alpha virt. eigenvalues --    0.09728   0.09733   0.09981   0.11549   0.11916
 Alpha virt. eigenvalues --    0.11945   0.14073   0.20063   0.20082   0.21825

  Beta  occ. eigenvalues --  -14.45692 -14.45689 -14.45670 -14.45662 -14.45657
  Beta  occ. eigenvalues --  -14.45640 -10.39095 -10.38788 -10.38780 -10.37620
  Beta  occ. eigenvalues --  -10.37561 -10.37537 -10.36094 -10.36089 -10.36068
  Beta  occ. eigenvalues --  -10.36067 -10.36066 -10.36046  -1.17768  -1.01067
  Beta  occ. eigenvalues --   -1.01016  -1.01001  -0.99534  -0.99471  -0.99408
  Beta  occ. eigenvalues --   -0.90430  -0.90419  -0.89904  -0.72538  -0.72507
  Beta  occ. eigenvalues --   -0.69529  -0.68552  -0.68546  -0.67122  -0.59820
  Beta  occ. eigenvalues --   -0.52672  -0.52646  -0.49651  -0.49639  -0.47693
  Beta  occ. eigenvalues --   -0.47034  -0.46926  -0.46912  -0.46601  -0.46591
  Beta  occ. eigenvalues --   -0.46402  -0.44492  -0.43442  -0.43414  -0.43143
  Beta  occ. eigenvalues --   -0.43081  -0.43060  -0.42095  -0.41856  -0.41850
  Beta  occ. eigenvalues --   -0.29287  -0.29274
  Beta virt. eigenvalues --   -0.13713   0.04548   0.05708   0.05740   0.06130
  Beta virt. eigenvalues --    0.06140   0.10813   0.10859   0.10877   0.11586
  Beta virt. eigenvalues --    0.11970   0.11999   0.14390   0.20201   0.20218

 Mulliken charges and spin densities:
               1          2
     1  C    0.156670  -0.061943
     2  C   -0.358934   0.286930
     3  C    0.157757  -0.062836
     4  C   -0.358472   0.288469
     5  C    0.156498  -0.064438
     6  C   -0.357527   0.293697
     7  C   -0.051817  -0.086832
     8  N   -0.014947   0.139939
     9  C   -0.051642  -0.086848
    10  N   -0.015149   0.139966
    11  C   -0.052490  -0.086459
    12  N   -0.013243   0.139047
    13  C   -0.050278  -0.087989
    14  N   -0.016840   0.141949
    15  C   -0.051559  -0.088434
    16  N   -0.013436   0.142165
    17  C   -0.051964  -0.088162
    18  N   -0.012627   0.141779
 Sum of Mulliken charges =  -1.00000   1.00000

 Dipole moment (field-independent basis, Debye):
    X=             42.8833    Y=              8.1813    Z=             -4.9612  Tot=             43.9378
 Quadrupole moment (field-independent basis, Debye-Ang):
   XX=           -557.4715   YY=           -187.9793   ZZ=           -103.6511
   XY=            -73.0327   XZ=             44.9490   YZ=              0.9050

 Normal termination of Gaussian 16 at Fri Oct 11 15:32:07 2024.
