 Gaussian 16, Revision C.01,
 Gaussian 16:  ES64L-G16RevC.01  3-Jul-2019

 ----------------------------------------------------------------------
 # wb97xd def2svp scrf=(smd,solvent=acetonitrile) g09default scf=(xqc,m
 axcycle=64) force guess=read nosymm
 ----------------------------------------------------------------------

 ----------
 Title Card
 ----------
 Symbolic Z-matrix:
 Charge = -2 Multiplicity = 1

                          Input orientation:
 ---------------------------------------------------------------------
 Center     Atomic      Atomic             Coordinates (Angstroms)
 Number     Number       Type             X           Y           Z
 ---------------------------------------------------------------------
      1          6           0       -8.949503   -0.915043    1.108382
      2          6           0       -8.944181    0.471054    1.252150
      3          6           0       -8.253661   -2.113502    0.982612
      4          6           0       -7.047009   -2.804975    0.894275
      5          6           0       -9.644751   -2.114332    0.996706
      6          6           0      -10.849900   -2.811786    0.941617
      7          6           0      -10.164053    1.191198    1.343760
      8          7           0      -11.167590    1.772116    1.419650
      9          6           0       -7.711230    1.170897    1.323726
     10          7           0       -6.689658    1.721614    1.382865
     11          6           0       -5.812757   -2.105501    0.945872
     12          7           0       -4.808878   -1.521493    0.987437
     13          6           0       -7.036413   -4.215710    0.734709
     14          7           0       -7.035398   -5.369950    0.600265
     15          6           0      -10.840482   -4.227592    0.839168
     16          7           0      -10.799450   -5.386381    0.761107
     17          6           0      -12.081375   -2.107456    0.989335
     18          7           0      -13.073605   -1.503336    1.025171
 ---------------------------------------------------------------------

 SCF Done:  E(RwB97XD) =  -785.032607425     A.U. after    8 cycles

 Alpha  occ. eigenvalues --  -14.42771 -14.42763 -14.42760 -14.42758 -14.42753
 Alpha  occ. eigenvalues --  -14.42751 -10.34977 -10.34906 -10.34901 -10.33708
 Alpha  occ. eigenvalues --  -10.33699 -10.33695 -10.33691 -10.33687 -10.33685
 Alpha  occ. eigenvalues --  -10.32723 -10.32717 -10.32710  -1.03042  -0.99103
 Alpha  occ. eigenvalues --   -0.99098  -0.98721  -0.98036  -0.98029  -0.97952
 Alpha  occ. eigenvalues --   -0.88195  -0.88178  -0.86080  -0.68773  -0.68729
 Alpha  occ. eigenvalues --   -0.65166  -0.65058  -0.64899  -0.64129  -0.52448
 Alpha  occ. eigenvalues --   -0.47687  -0.47683  -0.46774  -0.46725  -0.45188
 Alpha  occ. eigenvalues --   -0.45073  -0.45067  -0.44535  -0.44205  -0.44174
 Alpha  occ. eigenvalues --   -0.43842  -0.42830  -0.42242  -0.42232  -0.42053
 Alpha  occ. eigenvalues --   -0.41952  -0.41934  -0.40542  -0.40184  -0.40166
 Alpha  occ. eigenvalues --   -0.31481  -0.31476  -0.23619
 Alpha virt. eigenvalues --    0.07491   0.07524   0.08873   0.09321   0.09370
 Alpha virt. eigenvalues --    0.12698   0.12726   0.13097   0.13152   0.14843
 Alpha virt. eigenvalues --    0.14958   0.16305   0.21100   0.21133   0.24193

 Mulliken charges:
               1
     1  C    0.159463
     2  C   -0.485442
     3  C    0.163636
     4  C   -0.487656
     5  C    0.156324
     6  C   -0.481359
     7  C   -0.134017
     8  N   -0.035456
     9  C   -0.135084
    10  N   -0.036890
    11  C   -0.135333
    12  N   -0.035506
    13  C   -0.135174
    14  N   -0.035589
    15  C   -0.133511
    16  N   -0.038006
    17  C   -0.133468
    18  N   -0.036932
 Sum of Mulliken charges =  -2.00000

 Dipole moment (field-independent basis, Debye):
    X=             85.7172    Y=             16.4650    Z=             -9.8914  Tot=             87.8428
 Quadrupole moment (field-independent basis, Debye-Ang):
   XX=           -964.7517   YY=           -227.4558   ZZ=           -113.5348
   XY=           -146.2857   XZ=             89.2422   YZ=              7.2866

 Normal termination of Gaussian 16 at Fri Oct 11 16:19:07 2024.
