 Gaussian 16, Revision C.01,
 Gaussian 16:  ES64L-G16RevC.01  3-Jul-2019

 ----------------------------------------------------------------------
 # wb97xd def2svp scrf=(smd,solvent=acetonitrile) g09default scf=(xqc,m
 axcycle=64) force guess=read nosymm
 ----------------------------------------------------------------------

 ----------
 Title Card
 ----------
 Symbolic Z-matrix:
 Charge = -1 Multiplicity = 2

                          Input orientation:
 ---------------------------------------------------------------------
 Center     Atomic      Atomic             Coordinates (Angstroms)
 Number     Number       Type             X           Y           Z
 ---------------------------------------------------------------------
      1          6           0       -8.949503   -0.915043    1.108382
      2          6           0       -8.944181    0.471054    1.252150
      3          6           0       -8.253661   -2.113502    0.982612
      4          6           0       -7.047009   -2.804975    0.894275
      5          6           0       -9.644751   -2.114332    0.996706
      6          6           0      -10.849900   -2.811786    0.941617
      7          6           0      -10.164053    1.191198    1.343760
      8          7           0      -11.167590    1.772116    1.419650
      9          6           0       -7.711230    1.170897    1.323726
     10          7           0       -6.689658    1.721614    1.382865
     11          6           0       -5.812757   -2.105501    0.945872
     12          7           0       -4.808878   -1.521493    0.987437
     13          6           0       -7.036413   -4.215710    0.734709
     14          7           0       -7.035398   -5.369950    0.600265
     15          6           0      -10.840482   -4.227592    0.839168
     16          7           0      -10.799450   -5.386381    0.761107
     17          6           0      -12.081375   -2.107456    0.989335
     18          7           0      -13.073605   -1.503336    1.025171
 ---------------------------------------------------------------------

 SCF Done:  E(UwB97XD) =  -784.860703739     A.U. after    8 cycles

 Alpha  occ. eigenvalues --  -14.45936 -14.45928 -14.45924 -14.45922 -14.45917
 Alpha  occ. eigenvalues --  -14.45914 -10.38246 -10.38176 -10.38171 -10.38038
 Alpha  occ. eigenvalues --  -10.38035 -10.38030 -10.36109 -10.36100 -10.36097
 Alpha  occ. eigenvalues --  -10.36091 -10.36088 -10.36086  -1.06689  -1.01957
 Alpha  occ. eigenvalues --   -1.01952  -1.01571  -1.00747  -1.00740  -1.00667
 Alpha  occ. eigenvalues --   -0.92067  -0.92051  -0.90102  -0.72241  -0.72198
 Alpha  occ. eigenvalues --   -0.68737  -0.68626  -0.68487  -0.67740  -0.55730
 Alpha  occ. eigenvalues --   -0.50892  -0.50886  -0.49752  -0.49695  -0.47622
 Alpha  occ. eigenvalues --   -0.47515  -0.47508  -0.47016  -0.46778  -0.46754
 Alpha  occ. eigenvalues --   -0.46629  -0.45189  -0.44861  -0.44851  -0.44686
 Alpha  occ. eigenvalues --   -0.44386  -0.44368  -0.42950  -0.42758  -0.42742
 Alpha  occ. eigenvalues --   -0.35269  -0.35265  -0.27997
 Alpha virt. eigenvalues --    0.04810   0.04841   0.06479   0.06890   0.06943
 Alpha virt. eigenvalues --    0.10215   0.10243   0.10508   0.10628   0.12407
 Alpha virt. eigenvalues --    0.12533   0.14489   0.19356   0.19378   0.20960

  Beta  occ. eigenvalues --  -14.45744 -14.45736 -14.45732 -14.45730 -14.45725
  Beta  occ. eigenvalues --  -14.45722 -10.38282 -10.38213 -10.38207 -10.37687
  Beta  occ. eigenvalues --  -10.37684 -10.37677 -10.36201 -10.36192 -10.36189
  Beta  occ. eigenvalues --  -10.36182 -10.36180 -10.36178  -1.06294  -1.01606
  Beta  occ. eigenvalues --   -1.01601  -1.01217  -1.00416  -1.00409  -1.00338
  Beta  occ. eigenvalues --   -0.91303  -0.91286  -0.89126  -0.72108  -0.72062
  Beta  occ. eigenvalues --   -0.68521  -0.68411  -0.68226  -0.67581  -0.54958
  Beta  occ. eigenvalues --   -0.49678  -0.49594  -0.49587  -0.49538  -0.47262
  Beta  occ. eigenvalues --   -0.47155  -0.47149  -0.46657  -0.46496  -0.46474
  Beta  occ. eigenvalues --   -0.45469  -0.45086  -0.44242  -0.44223  -0.43928
  Beta  occ. eigenvalues --   -0.43916  -0.43884  -0.42805  -0.42617  -0.42603
  Beta  occ. eigenvalues --   -0.32269  -0.32263
  Beta virt. eigenvalues --   -0.10705   0.05504   0.05536   0.06589   0.06989
  Beta virt. eigenvalues --    0.07040   0.10508   0.11249   0.11278   0.11404
  Beta virt. eigenvalues --    0.12452   0.12577   0.14743   0.19551   0.19575

 Mulliken charges and spin densities:
               1          2
     1  C    0.181918  -0.051098
     2  C   -0.377556   0.305916
     3  C    0.185411  -0.051204
     4  C   -0.379510   0.305591
     5  C    0.177843  -0.050920
     6  C   -0.373134   0.305999
     7  C   -0.085137  -0.072253
     8  N    0.017418   0.111735
     9  C   -0.086333  -0.072272
    10  N    0.016073   0.111435
    11  C   -0.086531  -0.072252
    12  N    0.017407   0.111597
    13  C   -0.086487  -0.072144
    14  N    0.017318   0.111473
    15  C   -0.084992  -0.072226
    16  N    0.014995   0.111334
    17  C   -0.084671  -0.072305
    18  N    0.015970   0.111593
 Sum of Mulliken charges =  -1.00000   1.00000

 Dipole moment (field-independent basis, Debye):
    X=             42.7761    Y=              8.2311    Z=             -4.9454  Tot=             43.8407
 Quadrupole moment (field-independent basis, Debye-Ang):
   XX=           -552.2516   YY=           -184.9313   ZZ=           -104.1142
   XY=            -72.7421   XZ=             44.7561   YZ=              1.2556

 Normal termination of Gaussian 16 at Fri Oct 11 16:18:50 2024.
