 Gaussian 16, Revision C.01,
 Gaussian 16:  ES64L-G16RevC.01  3-Jul-2019

 ----------------------------------------------------------------------
 # wb97xd def2svp scrf=(smd,solvent=acetonitrile) g09default scf=(xqc,m
 axcycle=64) force guess=read nosymm
 ----------------------------------------------------------------------

 ----------
 Title Card
 ----------
 Symbolic Z-matrix:
 Charge = -2 Multiplicity = 1

                          Input orientation:
 ---------------------------------------------------------------------
 Center     Atomic      Atomic             Coordinates (Angstroms)
 Number     Number       Type             X           Y           Z
 ---------------------------------------------------------------------
      1          6           0       -8.948435   -0.914881    1.108887
      2          6           0       -8.942547    0.471264    1.253253
      3          6           0       -8.253313   -2.113224    0.982162
      4          6           0       -7.046514   -2.804491    0.893325
      5          6           0       -9.644338   -2.113835    0.996719
      6          6           0      -10.849472   -2.812022    0.941458
      7          6           0      -10.163309    1.189603    1.344132
      8          7           0      -11.167963    1.768730    1.418997
      9          6           0       -7.710010    1.171955    1.324242
     10          7           0       -6.688044    1.722172    1.382382
     11          6           0       -5.812496   -2.104686    0.945426
     12          7           0       -4.809762   -1.518762    0.988107
     13          6           0       -7.037429   -4.215121    0.734608
     14          7           0       -7.038769   -5.369492    0.601025
     15          6           0      -10.840391   -4.227836    0.838574
     16          7           0      -10.802032   -5.386737    0.760131
     17          6           0      -12.081497   -2.108590    0.989532
     18          7           0      -13.073572   -1.504224    1.025845
 ---------------------------------------------------------------------

 SCF Done:  E(RwB97XD) =  -785.032634508     A.U. after    9 cycles

 Alpha  occ. eigenvalues --  -14.42771 -14.42761 -14.42760 -14.42759 -14.42755
 Alpha  occ. eigenvalues --  -14.42751 -10.34980 -10.34910 -10.34900 -10.33708
 Alpha  occ. eigenvalues --  -10.33696 -10.33695 -10.33693 -10.33691 -10.33685
 Alpha  occ. eigenvalues --  -10.32722 -10.32719 -10.32711  -1.03049  -0.99102
 Alpha  occ. eigenvalues --   -0.99097  -0.98720  -0.98034  -0.98028  -0.97951
 Alpha  occ. eigenvalues --   -0.88192  -0.88178  -0.86082  -0.68769  -0.68731
 Alpha  occ. eigenvalues --   -0.65156  -0.65071  -0.64904  -0.64126  -0.52449
 Alpha  occ. eigenvalues --   -0.47687  -0.47682  -0.46774  -0.46730  -0.45188
 Alpha  occ. eigenvalues --   -0.45073  -0.45066  -0.44534  -0.44204  -0.44179
 Alpha  occ. eigenvalues --   -0.43843  -0.42829  -0.42241  -0.42232  -0.42052
 Alpha  occ. eigenvalues --   -0.41951  -0.41936  -0.40541  -0.40181  -0.40164
 Alpha  occ. eigenvalues --   -0.31478  -0.31473  -0.23623
 Alpha virt. eigenvalues --    0.07497   0.07518   0.08876   0.09327   0.09366
 Alpha virt. eigenvalues --    0.12699   0.12722   0.13092   0.13150   0.14843
 Alpha virt. eigenvalues --    0.14945   0.16302   0.21107   0.21130   0.24194

 Mulliken charges:
               1
     1  C    0.159091
     2  C   -0.485265
     3  C    0.163202
     4  C   -0.487188
     5  C    0.156773
     6  C   -0.481709
     7  C   -0.134150
     8  N   -0.035815
     9  C   -0.134777
    10  N   -0.036687
    11  C   -0.135127
    12  N   -0.035428
    13  C   -0.135121
    14  N   -0.035907
    15  C   -0.133345
    16  N   -0.038004
    17  C   -0.133611
    18  N   -0.036932
 Sum of Mulliken charges =  -2.00000

 Dipole moment (field-independent basis, Debye):
    X=             85.7352    Y=             16.4684    Z=             -9.8912  Tot=             87.8610
 Quadrupole moment (field-independent basis, Debye-Ang):
   XX=           -965.0710   YY=           -227.4333   ZZ=           -113.5324
   XY=           -146.4471   XZ=             89.2472   YZ=              7.2987

 Normal termination of Gaussian 16 at Fri Oct 11 16:19:47 2024.
