 Gaussian 16, Revision C.01,
 Gaussian 16:  ES64L-G16RevC.01  3-Jul-2019

 ----------------------------------------------------------------------
 # wb97xd def2svp scrf=(smd,solvent=acetonitrile) g09default scf=(xqc,m
 axcycle=64) force guess=read nosymm
 ----------------------------------------------------------------------

 ----------
 Title Card
 ----------
 Symbolic Z-matrix:
 Charge = -1 Multiplicity = 2

                          Input orientation:
 ---------------------------------------------------------------------
 Center     Atomic      Atomic             Coordinates (Angstroms)
 Number     Number       Type             X           Y           Z
 ---------------------------------------------------------------------
      1          6           0       -8.948435   -0.914881    1.108887
      2          6           0       -8.942547    0.471264    1.253253
      3          6           0       -8.253313   -2.113224    0.982162
      4          6           0       -7.046514   -2.804491    0.893325
      5          6           0       -9.644338   -2.113835    0.996719
      6          6           0      -10.849472   -2.812022    0.941458
      7          6           0      -10.163309    1.189603    1.344132
      8          7           0      -11.167963    1.768730    1.418997
      9          6           0       -7.710010    1.171955    1.324242
     10          7           0       -6.688044    1.722172    1.382382
     11          6           0       -5.812496   -2.104686    0.945426
     12          7           0       -4.809762   -1.518762    0.988107
     13          6           0       -7.037429   -4.215121    0.734608
     14          7           0       -7.038769   -5.369492    0.601025
     15          6           0      -10.840391   -4.227836    0.838574
     16          7           0      -10.802032   -5.386737    0.760131
     17          6           0      -12.081497   -2.108590    0.989532
     18          7           0      -13.073572   -1.504224    1.025845
 ---------------------------------------------------------------------

 SCF Done:  E(UwB97XD) =  -784.860694640     A.U. after   11 cycles

 Alpha  occ. eigenvalues --  -14.45936 -14.45926 -14.45925 -14.45923 -14.45919
 Alpha  occ. eigenvalues --  -14.45915 -10.38248 -10.38180 -10.38169 -10.38040
 Alpha  occ. eigenvalues --  -10.38035 -10.38030 -10.36109 -10.36099 -10.36096
 Alpha  occ. eigenvalues --  -10.36093 -10.36091 -10.36086  -1.06696  -1.01956
 Alpha  occ. eigenvalues --   -1.01951  -1.01570  -1.00746  -1.00739  -1.00666
 Alpha  occ. eigenvalues --   -0.92065  -0.92050  -0.90103  -0.72237  -0.72199
 Alpha  occ. eigenvalues --   -0.68726  -0.68638  -0.68492  -0.67736  -0.55731
 Alpha  occ. eigenvalues --   -0.50891  -0.50885  -0.49751  -0.49700  -0.47622
 Alpha  occ. eigenvalues --   -0.47515  -0.47507  -0.47015  -0.46777  -0.46757
 Alpha  occ. eigenvalues --   -0.46630  -0.45188  -0.44860  -0.44851  -0.44686
 Alpha  occ. eigenvalues --   -0.44385  -0.44370  -0.42949  -0.42755  -0.42741
 Alpha  occ. eigenvalues --   -0.35267  -0.35263  -0.28000
 Alpha virt. eigenvalues --    0.04816   0.04835   0.06482   0.06896   0.06938
 Alpha virt. eigenvalues --    0.10215   0.10240   0.10503   0.10626   0.12408
 Alpha virt. eigenvalues --    0.12519   0.14486   0.19362   0.19375   0.20962

  Beta  occ. eigenvalues --  -14.45744 -14.45733 -14.45733 -14.45731 -14.45727
  Beta  occ. eigenvalues --  -14.45722 -10.38284 -10.38217 -10.38206 -10.37689
  Beta  occ. eigenvalues --  -10.37684 -10.37678 -10.36201 -10.36190 -10.36188
  Beta  occ. eigenvalues --  -10.36184 -10.36183 -10.36177  -1.06301  -1.01604
  Beta  occ. eigenvalues --   -1.01600  -1.01217  -1.00415  -1.00408  -1.00337
  Beta  occ. eigenvalues --   -0.91300  -0.91285  -0.89127  -0.72103  -0.72064
  Beta  occ. eigenvalues --   -0.68511  -0.68423  -0.68231  -0.67577  -0.54960
  Beta  occ. eigenvalues --   -0.49677  -0.49594  -0.49592  -0.49537  -0.47262
  Beta  occ. eigenvalues --   -0.47155  -0.47148  -0.46656  -0.46495  -0.46478
  Beta  occ. eigenvalues --   -0.45470  -0.45086  -0.44240  -0.44225  -0.43926
  Beta  occ. eigenvalues --   -0.43916  -0.43884  -0.42804  -0.42615  -0.42601
  Beta  occ. eigenvalues --   -0.32264  -0.32260
  Beta virt. eigenvalues --   -0.10708   0.05509   0.05530   0.06592   0.06995
  Beta virt. eigenvalues --    0.07035   0.10504   0.11250   0.11274   0.11402
  Beta virt. eigenvalues --    0.12453   0.12563   0.14741   0.19557   0.19572

 Mulliken charges and spin densities:
               1          2
     1  C    0.181538  -0.051139
     2  C   -0.377373   0.305938
     3  C    0.184928  -0.051188
     4  C   -0.379068   0.305529
     5  C    0.178290  -0.051025
     6  C   -0.373424   0.306097
     7  C   -0.085311  -0.072235
     8  N    0.017076   0.111754
     9  C   -0.085982  -0.072339
    10  N    0.016276   0.111494
    11  C   -0.086313  -0.072272
    12  N    0.017467   0.111582
    13  C   -0.086467  -0.072132
    14  N    0.017015   0.111506
    15  C   -0.084866  -0.072273
    16  N    0.015012   0.111406
    17  C   -0.084776  -0.072331
    18  N    0.015979   0.111627
 Sum of Mulliken charges =  -1.00000   1.00000

 Dipole moment (field-independent basis, Debye):
    X=             42.7932    Y=              8.2344    Z=             -4.9452  Tot=             43.8579
 Quadrupole moment (field-independent basis, Debye-Ang):
   XX=           -552.5541   YY=           -184.9118   ZZ=           -104.1113
   XY=            -72.8779   XZ=             44.7607   YZ=              1.2712

 Normal termination of Gaussian 16 at Fri Oct 11 16:19:29 2024.
