 Gaussian 16, Revision C.01,
 Gaussian 16:  ES64L-G16RevC.01  3-Jul-2019

 ----------------------------------------------------------------------
 # wb97xd def2svp scrf=(smd,solvent=acetonitrile) g09default scf=(xqc,m
 axcycle=64) force guess=read nosymm
 ----------------------------------------------------------------------

 ----------
 Title Card
 ----------
 Symbolic Z-matrix:
 Charge = -2 Multiplicity = 1

                          Input orientation:
 ---------------------------------------------------------------------
 Center     Atomic      Atomic             Coordinates (Angstroms)
 Number     Number       Type             X           Y           Z
 ---------------------------------------------------------------------
      1          6           0       -8.939101   -0.978877    1.104216
      2          6           0       -8.938428    0.494288    1.251165
      3          6           0       -8.297591   -2.084217    0.982982
      4          6           0       -7.015104   -2.818824    0.898119
      5          6           0       -9.582368   -2.085393    0.998035
      6          6           0      -10.864967   -2.821120    0.937096
      7          6           0      -10.143443    1.176951    1.335896
      8          7           0      -11.176403    1.726210    1.402138
      9          6           0       -7.732538    1.177238    1.317380
     10          7           0       -6.698906    1.726831    1.372357
     11          6           0       -5.817860   -2.118970    0.952720
     12          7           0       -4.824605   -1.500686    1.000894
     13          6           0       -7.020365   -4.198504    0.751258
     14          7           0       -7.057041   -5.363864    0.627974
     15          6           0      -10.860246   -4.204433    0.820520
     16          7           0      -10.823428   -5.371750    0.727162
     17          6           0      -12.062260   -2.121730    0.998058
     18          7           0      -13.055241   -1.503327    1.050835
 ---------------------------------------------------------------------

 SCF Done:  E(RwB97XD) =  -784.993090375     A.U. after   12 cycles

 Alpha  occ. eigenvalues --  -14.42584 -14.42580 -14.42577 -14.42572 -14.42565
 Alpha  occ. eigenvalues --  -14.42562 -10.35625 -10.35436 -10.35424 -10.33559
 Alpha  occ. eigenvalues --  -10.33553 -10.33551 -10.33548 -10.33538 -10.33535
 Alpha  occ. eigenvalues --  -10.32719 -10.32709 -10.32701  -1.10413  -0.98693
 Alpha  occ. eigenvalues --   -0.98677  -0.98632  -0.97432  -0.97414  -0.97337
 Alpha  occ. eigenvalues --   -0.87695  -0.87690  -0.86843  -0.69172  -0.69144
 Alpha  occ. eigenvalues --   -0.65613  -0.65152  -0.65138  -0.64191  -0.55135
 Alpha  occ. eigenvalues --   -0.48689  -0.48664  -0.47669  -0.47666  -0.45330
 Alpha  occ. eigenvalues --   -0.44966  -0.44847  -0.44843  -0.44406  -0.44400
 Alpha  occ. eigenvalues --   -0.44297  -0.42430  -0.41810  -0.41800  -0.41621
 Alpha  occ. eigenvalues --   -0.41465  -0.41441  -0.40033  -0.39809  -0.39805
 Alpha  occ. eigenvalues --   -0.30258  -0.30244  -0.25167
 Alpha virt. eigenvalues --    0.07768   0.07796   0.08132   0.08960   0.08967
 Alpha virt. eigenvalues --    0.12554   0.12564   0.12917   0.13929   0.14666
 Alpha virt. eigenvalues --    0.14691   0.16056   0.21478   0.21490   0.24705

 Mulliken charges:
               1
     1  C    0.148597
     2  C   -0.467981
     3  C    0.148895
     4  C   -0.468181
     5  C    0.149056
     6  C   -0.468467
     7  C   -0.117637
     8  N   -0.055964
     9  C   -0.117559
    10  N   -0.056304
    11  C   -0.118062
    12  N   -0.055005
    13  C   -0.117405
    14  N   -0.057104
    15  C   -0.118039
    16  N   -0.055855
    17  C   -0.117985
    18  N   -0.055000
 Sum of Mulliken charges =  -2.00000

 Dipole moment (field-independent basis, Debye):
    X=             85.8632    Y=             16.4621    Z=             -9.9021  Tot=             87.9860
 Quadrupole moment (field-independent basis, Debye-Ang):
   XX=           -970.3728   YY=           -230.2053   ZZ=           -113.1337
   XY=           -147.2063   XZ=             89.3701   YZ=              7.0584

 Normal termination of Gaussian 16 at Fri Oct 11 15:33:26 2024.
