 Gaussian 16, Revision C.01,
 Gaussian 16:  ES64L-G16RevC.01  3-Jul-2019

 ----------------------------------------------------------------------
 # wb97xd def2svp scrf=(smd,solvent=acetonitrile) g09default scf=(xqc,m
 axcycle=64) force guess=read nosymm
 ----------------------------------------------------------------------

 ----------
 Title Card
 ----------
 Symbolic Z-matrix:
 Charge = -1 Multiplicity = 2

                          Input orientation:
 ---------------------------------------------------------------------
 Center     Atomic      Atomic             Coordinates (Angstroms)
 Number     Number       Type             X           Y           Z
 ---------------------------------------------------------------------
      1          6           0       -8.939101   -0.978877    1.104216
      2          6           0       -8.938428    0.494288    1.251165
      3          6           0       -8.297591   -2.084217    0.982982
      4          6           0       -7.015104   -2.818824    0.898119
      5          6           0       -9.582368   -2.085393    0.998035
      6          6           0      -10.864967   -2.821120    0.937096
      7          6           0      -10.143443    1.176951    1.335896
      8          7           0      -11.176403    1.726210    1.402138
      9          6           0       -7.732538    1.177238    1.317380
     10          7           0       -6.698906    1.726831    1.372357
     11          6           0       -5.817860   -2.118970    0.952720
     12          7           0       -4.824605   -1.500686    1.000894
     13          6           0       -7.020365   -4.198504    0.751258
     14          7           0       -7.057041   -5.363864    0.627974
     15          6           0      -10.860246   -4.204433    0.820520
     16          7           0      -10.823428   -5.371750    0.727162
     17          6           0      -12.062260   -2.121730    0.998058
     18          7           0      -13.055241   -1.503327    1.050835
 ---------------------------------------------------------------------

 SCF Done:  E(UwB97XD) =  -784.803409437     A.U. after   19 cycles

 Alpha  occ. eigenvalues --  -14.45922 -14.45909 -14.45904 -14.45901 -14.45890
 Alpha  occ. eigenvalues --  -14.45885 -10.38542 -10.38352 -10.38343 -10.37953
 Alpha  occ. eigenvalues --  -10.37948 -10.37940 -10.36011 -10.36000 -10.35998
 Alpha  occ. eigenvalues --  -10.35995 -10.35983 -10.35980  -1.13539  -1.01680
 Alpha  occ. eigenvalues --   -1.01671  -1.01603  -1.00294  -1.00283  -1.00208
 Alpha  occ. eigenvalues --   -0.91525  -0.91521  -0.90742  -0.72415  -0.72386
 Alpha  occ. eigenvalues --   -0.69189  -0.68633  -0.68619  -0.67555  -0.57937
 Alpha  occ. eigenvalues --   -0.51618  -0.51592  -0.50911  -0.50906  -0.48228
 Alpha  occ. eigenvalues --   -0.47536  -0.47423  -0.47420  -0.46998  -0.46990
 Alpha  occ. eigenvalues --   -0.46911  -0.44859  -0.44568  -0.44564  -0.44400
 Alpha  occ. eigenvalues --   -0.43959  -0.43934  -0.42546  -0.42395  -0.42391
 Alpha  occ. eigenvalues --   -0.34124  -0.34115  -0.29547
 Alpha virt. eigenvalues --    0.05390   0.05415   0.05633   0.06472   0.06484
 Alpha virt. eigenvalues --    0.09967   0.09981   0.10291   0.11381   0.12213
 Alpha virt. eigenvalues --    0.12241   0.14161   0.19833   0.19843   0.21477

  Beta  occ. eigenvalues --  -14.45696 -14.45685 -14.45679 -14.45678 -14.45667
  Beta  occ. eigenvalues --  -14.45662 -10.38593 -10.38406 -10.38396 -10.37598
  Beta  occ. eigenvalues --  -10.37594 -10.37585 -10.36114 -10.36103 -10.36101
  Beta  occ. eigenvalues --  -10.36098 -10.36086 -10.36082  -1.13294  -1.01282
  Beta  occ. eigenvalues --   -1.01272  -1.01202  -0.99897  -0.99884  -0.99812
  Beta  occ. eigenvalues --   -0.90704  -0.90701  -0.89788  -0.72336  -0.72307
  Beta  occ. eigenvalues --   -0.68937  -0.68470  -0.68455  -0.67465  -0.57630
  Beta  occ. eigenvalues --   -0.51559  -0.51531  -0.49606  -0.49605  -0.47119
  Beta  occ. eigenvalues --   -0.47007  -0.47005  -0.46942  -0.46626  -0.46618
  Beta  occ. eigenvalues --   -0.46497  -0.44748  -0.43796  -0.43771  -0.43446
  Beta  occ. eigenvalues --   -0.43426  -0.43419  -0.42370  -0.42234  -0.42232
  Beta  occ. eigenvalues --   -0.30369  -0.30350
  Beta virt. eigenvalues --   -0.12698   0.05586   0.05610   0.05763   0.06577
  Beta virt. eigenvalues --    0.06589   0.11075   0.11086   0.11118   0.11405
  Beta virt. eigenvalues --    0.12261   0.12288   0.14455   0.19991   0.20001

 Mulliken charges and spin densities:
               1          2
     1  C    0.161644  -0.064571
     2  C   -0.358497   0.302524
     3  C    0.161850  -0.065174
     4  C   -0.358329   0.303180
     5  C    0.161911  -0.065148
     6  C   -0.358824   0.302410
     7  C   -0.068813  -0.082826
     8  N    0.000614   0.130699
     9  C   -0.068665  -0.082907
    10  N    0.000315   0.130856
    11  C   -0.069221  -0.082650
    12  N    0.001403   0.130289
    13  C   -0.068306  -0.083287
    14  N   -0.000383   0.131451
    15  C   -0.069105  -0.082612
    16  N    0.000489   0.130230
    17  C   -0.069362  -0.082415
    18  N    0.001280   0.129952
 Sum of Mulliken charges =  -1.00000   1.00000

 Dipole moment (field-independent basis, Debye):
    X=             42.9398    Y=              8.2237    Z=             -4.9573  Tot=             44.0004
 Quadrupole moment (field-independent basis, Debye-Ang):
   XX=           -556.9950   YY=           -186.5211   ZZ=           -103.7973
   XY=            -73.5778   XZ=             44.9443   YZ=              1.1261

 Normal termination of Gaussian 16 at Fri Oct 11 15:33:03 2024.
