 Gaussian 16, Revision C.01,
 Gaussian 16:  ES64L-G16RevC.01  3-Jul-2019

 ----------------------------------------------------------------------
 # wb97xd def2svp scrf=(smd,solvent=acetonitrile) g09default scf=(xqc,m
 axcycle=64) force guess=read nosymm
 ----------------------------------------------------------------------

 ----------
 Title Card
 ----------
 Symbolic Z-matrix:
 Charge = -2 Multiplicity = 1

                          Input orientation:
 ---------------------------------------------------------------------
 Center     Atomic      Atomic             Coordinates (Angstroms)
 Number     Number       Type             X           Y           Z
 ---------------------------------------------------------------------
      1          6           0       -8.937908   -0.934342    1.107351
      2          6           0       -8.938356    0.474169    1.249822
      3          6           0       -8.258540   -2.106188    0.981929
      4          6           0       -7.032037   -2.808370    0.898707
      5          6           0       -9.623413   -2.109617    0.995344
      6          6           0      -10.847280   -2.810886    0.937729
      7          6           0      -10.156475    1.172832    1.335115
      8          7           0      -11.179197    1.730624    1.402563
      9          6           0       -7.719884    1.172811    1.317579
     10          7           0       -6.695893    1.731413    1.372425
     11          6           0       -5.815390   -2.105307    0.953698
     12          7           0       -4.818686   -1.500146    1.001141
     13          6           0       -7.030435   -4.208404    0.750588
     14          7           0       -7.054646   -5.368178    0.627628
     15          6           0      -10.849899   -4.212374    0.819561
     16          7           0      -10.825704   -5.377411    0.726541
     17          6           0      -12.064682   -2.108203    1.000193
     18          7           0      -13.061470   -1.502600    1.050890
 ---------------------------------------------------------------------

 SCF Done:  E(RwB97XD) =  -785.031889055     A.U. after   13 cycles

 Alpha  occ. eigenvalues --  -14.42806 -14.42788 -14.42741 -14.42734 -14.42730
 Alpha  occ. eigenvalues --  -14.42722 -10.35169 -10.35079 -10.35056 -10.33735
 Alpha  occ. eigenvalues --  -10.33715 -10.33678 -10.33673 -10.33668 -10.33661
 Alpha  occ. eigenvalues --  -10.32686 -10.32643 -10.32638  -1.04771  -0.98927
 Alpha  occ. eigenvalues --   -0.98916  -0.98679  -0.97767  -0.97748  -0.97672
 Alpha  occ. eigenvalues --   -0.88194  -0.88118  -0.86487  -0.68981  -0.68919
 Alpha  occ. eigenvalues --   -0.65289  -0.65280  -0.65237  -0.64249  -0.53039
 Alpha  occ. eigenvalues --   -0.47726  -0.47699  -0.47275  -0.47137  -0.45133
 Alpha  occ. eigenvalues --   -0.45017  -0.44999  -0.44468  -0.44305  -0.44291
 Alpha  occ. eigenvalues --   -0.44213  -0.42650  -0.42054  -0.42047  -0.41862
 Alpha  occ. eigenvalues --   -0.41778  -0.41760  -0.40314  -0.40050  -0.39983
 Alpha  occ. eigenvalues --   -0.31161  -0.31093  -0.24110
 Alpha virt. eigenvalues --    0.07428   0.07545   0.08693   0.09156   0.09198
 Alpha virt. eigenvalues --    0.12540   0.12584   0.12986   0.13290   0.14751
 Alpha virt. eigenvalues --    0.14779   0.16228   0.21265   0.21278   0.24361

 Mulliken charges:
               1
     1  C    0.154424
     2  C   -0.476178
     3  C    0.153869
     4  C   -0.476763
     5  C    0.158102
     6  C   -0.476337
     7  C   -0.129464
     8  N   -0.042804
     9  C   -0.129545
    10  N   -0.044359
    11  C   -0.129920
    12  N   -0.043391
    13  C   -0.130155
    14  N   -0.042530
    15  C   -0.128332
    16  N   -0.045218
    17  C   -0.128709
    18  N   -0.042689
 Sum of Mulliken charges =  -2.00000

 Dipole moment (field-independent basis, Debye):
    X=             85.8089    Y=             16.4338    Z=             -9.9037  Tot=             87.9280
 Quadrupole moment (field-independent basis, Debye-Ang):
   XX=           -967.2497   YY=           -227.9655   ZZ=           -113.4164
   XY=           -146.8746   XZ=             89.3029   YZ=              7.2748

 Normal termination of Gaussian 16 at Fri Oct 11 15:34:20 2024.
