 Gaussian 16, Revision C.01,
 Gaussian 16:  ES64L-G16RevC.01  3-Jul-2019

 ----------------------------------------------------------------------
 # wb97xd def2svp scrf=(smd,solvent=acetonitrile) g09default scf=(xqc,m
 axcycle=64) force guess=read nosymm
 ----------------------------------------------------------------------

 ----------
 Title Card
 ----------
 Symbolic Z-matrix:
 Charge = -1 Multiplicity = 2

                          Input orientation:
 ---------------------------------------------------------------------
 Center     Atomic      Atomic             Coordinates (Angstroms)
 Number     Number       Type             X           Y           Z
 ---------------------------------------------------------------------
      1          6           0       -8.937908   -0.934342    1.107351
      2          6           0       -8.938356    0.474169    1.249822
      3          6           0       -8.258540   -2.106188    0.981929
      4          6           0       -7.032037   -2.808370    0.898707
      5          6           0       -9.623413   -2.109617    0.995344
      6          6           0      -10.847280   -2.810886    0.937729
      7          6           0      -10.156475    1.172832    1.335115
      8          7           0      -11.179197    1.730624    1.402563
      9          6           0       -7.719884    1.172811    1.317579
     10          7           0       -6.695893    1.731413    1.372425
     11          6           0       -5.815390   -2.105307    0.953698
     12          7           0       -4.818686   -1.500146    1.001141
     13          6           0       -7.030435   -4.208404    0.750588
     14          7           0       -7.054646   -5.368178    0.627628
     15          6           0      -10.849899   -4.212374    0.819561
     16          7           0      -10.825704   -5.377411    0.726541
     17          6           0      -12.064682   -2.108203    1.000193
     18          7           0      -13.061470   -1.502600    1.050890
 ---------------------------------------------------------------------

 SCF Done:  E(UwB97XD) =  -784.854400224     A.U. after   19 cycles

 Alpha  occ. eigenvalues --  -14.46009 -14.45989 -14.45980 -14.45979 -14.45975
 Alpha  occ. eigenvalues --  -14.45972 -10.38323 -10.38233 -10.38214 -10.37980
 Alpha  occ. eigenvalues --  -10.37964 -10.37932 -10.36134 -10.36110 -10.36109
 Alpha  occ. eigenvalues --  -10.36102 -10.36100 -10.36097  -1.08286  -1.01851
 Alpha  occ. eigenvalues --   -1.01823  -1.01565  -1.00550  -1.00514  -1.00438
 Alpha  occ. eigenvalues --   -0.92025  -0.91992  -0.90463  -0.72382  -0.72328
 Alpha  occ. eigenvalues --   -0.68856  -0.68838  -0.68810  -0.67791  -0.56205
 Alpha  occ. eigenvalues --   -0.50943  -0.50937  -0.50271  -0.50115  -0.47620
 Alpha  occ. eigenvalues --   -0.47506  -0.47504  -0.47017  -0.47002  -0.46887
 Alpha  occ. eigenvalues --   -0.46863  -0.45040  -0.44742  -0.44712  -0.44551
 Alpha  occ. eigenvalues --   -0.44235  -0.44215  -0.42763  -0.42620  -0.42564
 Alpha  occ. eigenvalues --   -0.34943  -0.34920  -0.28489
 Alpha virt. eigenvalues --    0.04839   0.04944   0.06263   0.06710   0.06733
 Alpha virt. eigenvalues --    0.10026   0.10044   0.10415   0.10715   0.12309
 Alpha virt. eigenvalues --    0.12329   0.14405   0.19553   0.19565   0.21117

  Beta  occ. eigenvalues --  -14.45806 -14.45782 -14.45778 -14.45772 -14.45770
  Beta  occ. eigenvalues --  -14.45766 -10.38366 -10.38278 -10.38259 -10.37623
  Beta  occ. eigenvalues --  -10.37608 -10.37583 -10.36230 -10.36207 -10.36204
  Beta  occ. eigenvalues --  -10.36198 -10.36197 -10.36194  -1.07928  -1.01478
  Beta  occ. eigenvalues --   -1.01454  -1.01193  -1.00193  -1.00158  -1.00086
  Beta  occ. eigenvalues --   -0.91253  -0.91205  -0.89497  -0.72268  -0.72213
  Beta  occ. eigenvalues --   -0.68639  -0.68615  -0.68592  -0.67653  -0.55555
  Beta  occ. eigenvalues --   -0.50180  -0.50025  -0.49636  -0.49629  -0.47237
  Beta  occ. eigenvalues --   -0.47124  -0.47121  -0.46621  -0.46568  -0.46551
  Beta  occ. eigenvalues --   -0.45830  -0.44933  -0.44084  -0.44065  -0.43729
  Beta  occ. eigenvalues --   -0.43712  -0.43690  -0.42606  -0.42473  -0.42416
  Beta  occ. eigenvalues --   -0.31776  -0.31682
  Beta virt. eigenvalues --   -0.11325   0.05385   0.05484   0.06378   0.06811
  Beta virt. eigenvalues --    0.06835   0.10723   0.11090   0.11122   0.11221
  Beta virt. eigenvalues --    0.12353   0.12374   0.14665   0.19734   0.19744

 Mulliken charges and spin densities:
               1          2
     1  C    0.173282  -0.056531
     2  C   -0.367527   0.306089
     3  C    0.172148  -0.057181
     4  C   -0.367420   0.307387
     5  C    0.176758  -0.056359
     6  C   -0.369565   0.300027
     7  C   -0.080480  -0.076676
     8  N    0.011810   0.119502
     9  C   -0.080453  -0.077041
    10  N    0.010470   0.120284
    11  C   -0.080807  -0.077149
    12  N    0.011460   0.120343
    13  C   -0.080989  -0.076693
    14  N    0.012076   0.119357
    15  C   -0.080087  -0.075808
    16  N    0.008884   0.118391
    17  C   -0.080639  -0.075200
    18  N    0.011079   0.117257
 Sum of Mulliken charges =  -1.00000   1.00000

 Dipole moment (field-independent basis, Debye):
    X=             42.9502    Y=              8.2307    Z=             -4.9562  Tot=             44.0117
 Quadrupole moment (field-independent basis, Debye-Ang):
   XX=           -555.8099   YY=           -185.1521   ZZ=           -104.0324
   XY=            -73.7075   XZ=             44.9218   YZ=              1.2984

 Normal termination of Gaussian 16 at Fri Oct 11 15:33:58 2024.
