 Gaussian 16, Revision C.01,
 Gaussian 16:  ES64L-G16RevC.01  3-Jul-2019

 ----------------------------------------------------------------------
 # wb97xd def2svp scrf=(smd,solvent=acetonitrile) g09default scf=(xqc,m
 axcycle=64) force guess=read nosymm
 ----------------------------------------------------------------------

 ----------
 Title Card
 ----------
 Symbolic Z-matrix:
 Charge = -2 Multiplicity = 1

                          Input orientation:
 ---------------------------------------------------------------------
 Center     Atomic      Atomic             Coordinates (Angstroms)
 Number     Number       Type             X           Y           Z
 ---------------------------------------------------------------------
      1          6           0       -8.937057   -0.890050    1.112585
      2          6           0       -8.938325    0.480550    1.250571
      3          6           0       -8.218663   -2.128629    0.980405
      4          6           0       -7.025809   -2.812042    0.899144
      5          6           0       -9.662952   -2.132770    0.992726
      6          6           0      -10.855188   -2.814391    0.937026
      7          6           0      -10.169719    1.179842    1.335210
      8          7           0      -11.194359    1.739408    1.404500
      9          6           0       -7.703673    1.181715    1.319463
     10          7           0       -6.683528    1.738712    1.373248
     11          6           0       -5.801693   -2.095556    0.953607
     12          7           0       -4.803662   -1.491551    1.001039
     13          6           0       -7.031592   -4.220633    0.748442
     14          7           0       -7.054543   -5.388494    0.623449
     15          6           0      -10.847608   -4.237668    0.817817
     16          7           0      -10.825858   -5.387125    0.727336
     17          6           0      -12.080203   -2.096849    1.001997
     18          7           0      -13.075464   -1.494648    1.050237
 ---------------------------------------------------------------------

 SCF Done:  E(RwB97XD) =  -785.023174383     A.U. after   14 cycles

 Alpha  occ. eigenvalues --  -14.43075 -14.42985 -14.42980 -14.42938 -14.42907
 Alpha  occ. eigenvalues --  -14.42795 -10.35242 -10.35182 -10.35158 -10.34013
 Alpha  occ. eigenvalues --  -10.33916 -10.33900 -10.33857 -10.33823 -10.33692
 Alpha  occ. eigenvalues --  -10.32873 -10.32772 -10.32759  -1.00900  -0.99272
 Alpha  occ. eigenvalues --   -0.98973  -0.98286  -0.98041  -0.97876  -0.97691
 Alpha  occ. eigenvalues --   -0.88557  -0.88526  -0.85674  -0.68756  -0.68699
 Alpha  occ. eigenvalues --   -0.65498  -0.65472  -0.65203  -0.63878  -0.51719
 Alpha  occ. eigenvalues --   -0.47806  -0.47726  -0.46357  -0.46247  -0.45288
 Alpha  occ. eigenvalues --   -0.45174  -0.45152  -0.44623  -0.44011  -0.43895
 Alpha  occ. eigenvalues --   -0.43143  -0.42772  -0.42406  -0.42160  -0.42062
 Alpha  occ. eigenvalues --   -0.41988  -0.41976  -0.40565  -0.39997  -0.39927
 Alpha  occ. eigenvalues --   -0.31892  -0.31753  -0.23136
 Alpha virt. eigenvalues --    0.07085   0.07120   0.08741   0.09069   0.09318
 Alpha virt. eigenvalues --    0.12309   0.12353   0.12504   0.12968   0.14465
 Alpha virt. eigenvalues --    0.14747   0.16427   0.21033   0.21082   0.24064

 Mulliken charges:
               1
     1  C    0.152113
     2  C   -0.482030
     3  C    0.152140
     4  C   -0.480421
     5  C    0.153276
     6  C   -0.486932
     7  C   -0.127104
     8  N   -0.044454
     9  C   -0.131242
    10  N   -0.036074
    11  C   -0.128317
    12  N   -0.040423
    13  C   -0.123527
    14  N   -0.051295
    15  C   -0.136477
    16  N   -0.021901
    17  C   -0.130606
    18  N   -0.036728
 Sum of Mulliken charges =  -2.00000

 Dipole moment (field-independent basis, Debye):
    X=             85.7593    Y=             16.3726    Z=             -9.9043  Tot=             87.8682
 Quadrupole moment (field-independent basis, Debye-Ang):
   XX=           -964.9967   YY=           -226.3036   ZZ=           -113.7787
   XY=           -145.6865   XZ=             89.2968   YZ=              7.3790

 Normal termination of Gaussian 16 at Fri Oct 11 15:35:18 2024.
