 Gaussian 16, Revision C.01,
 Gaussian 16:  ES64L-G16RevC.01  3-Jul-2019

 ----------------------------------------------------------------------
 # wb97xd def2svp scrf=(smd,solvent=acetonitrile) g09default scf=(xqc,m
 axcycle=64) force guess=read nosymm
 ----------------------------------------------------------------------

 ----------
 Title Card
 ----------
 Symbolic Z-matrix:
 Charge = -1 Multiplicity = 2

                          Input orientation:
 ---------------------------------------------------------------------
 Center     Atomic      Atomic             Coordinates (Angstroms)
 Number     Number       Type             X           Y           Z
 ---------------------------------------------------------------------
      1          6           0       -8.937057   -0.890050    1.112585
      2          6           0       -8.938325    0.480550    1.250571
      3          6           0       -8.218663   -2.128629    0.980405
      4          6           0       -7.025809   -2.812042    0.899144
      5          6           0       -9.662952   -2.132770    0.992726
      6          6           0      -10.855188   -2.814391    0.937026
      7          6           0      -10.169719    1.179842    1.335210
      8          7           0      -11.194359    1.739408    1.404500
      9          6           0       -7.703673    1.181715    1.319463
     10          7           0       -6.683528    1.738712    1.373248
     11          6           0       -5.801693   -2.095556    0.953607
     12          7           0       -4.803662   -1.491551    1.001039
     13          6           0       -7.031592   -4.220633    0.748442
     14          7           0       -7.054543   -5.388494    0.623449
     15          6           0      -10.847608   -4.237668    0.817817
     16          7           0      -10.825858   -5.387125    0.727336
     17          6           0      -12.080203   -2.096849    1.001997
     18          7           0      -13.075464   -1.494648    1.050237
 ---------------------------------------------------------------------

 SCF Done:  E(UwB97XD) =  -784.856546356     A.U. after   19 cycles

 Alpha  occ. eigenvalues --  -14.46266 -14.46153 -14.46118 -14.46047 -14.46030
 Alpha  occ. eigenvalues --  -14.45823 -10.38578 -10.38540 -10.38521 -10.38117
 Alpha  occ. eigenvalues --  -10.38059 -10.38032 -10.36423 -10.36318 -10.36287
 Alpha  occ. eigenvalues --  -10.36227 -10.36206 -10.36030  -1.04466  -1.02059
 Alpha  occ. eigenvalues --   -1.01827  -1.01084  -1.00847  -1.00591  -1.00414
 Alpha  occ. eigenvalues --   -0.92386  -0.92363  -0.89707  -0.72253  -0.72197
 Alpha  occ. eigenvalues --   -0.69057  -0.69029  -0.68754  -0.67523  -0.55070
 Alpha  occ. eigenvalues --   -0.50971  -0.50931  -0.49274  -0.49093  -0.47695
 Alpha  occ. eigenvalues --   -0.47594  -0.47559  -0.47075  -0.46653  -0.46554
 Alpha  occ. eigenvalues --   -0.45935  -0.45112  -0.44955  -0.44765  -0.44595
 Alpha  occ. eigenvalues --   -0.44470  -0.44379  -0.42952  -0.42621  -0.42541
 Alpha  occ. eigenvalues --   -0.35603  -0.35496  -0.27454
 Alpha virt. eigenvalues --    0.04315   0.04345   0.06356   0.06637   0.06924
 Alpha virt. eigenvalues --    0.09743   0.09827   0.10038   0.10501   0.12016
 Alpha virt. eigenvalues --    0.12332   0.14638   0.19269   0.19304   0.20854

  Beta  occ. eigenvalues --  -14.46067 -14.45959 -14.45929 -14.45861 -14.45843
  Beta  occ. eigenvalues --  -14.45651 -10.38609 -10.38572 -10.38551 -10.37774
  Beta  occ. eigenvalues --  -10.37714 -10.37690 -10.36517 -10.36411 -10.36378
  Beta  occ. eigenvalues --  -10.36316 -10.36295 -10.36114  -1.04067  -1.01727
  Beta  occ. eigenvalues --   -1.01478  -1.00740  -1.00525  -1.00264  -1.00082
  Beta  occ. eigenvalues --   -0.91659  -0.91633  -0.88738  -0.72095  -0.72044
  Beta  occ. eigenvalues --   -0.68841  -0.68811  -0.68501  -0.67351  -0.54171
  Beta  occ. eigenvalues --   -0.49701  -0.49641  -0.49112  -0.48933  -0.47341
  Beta  occ. eigenvalues --   -0.47234  -0.47216  -0.46725  -0.46394  -0.46309
  Beta  occ. eigenvalues --   -0.45010  -0.44774  -0.44329  -0.44238  -0.44106
  Beta  occ. eigenvalues --   -0.43876  -0.43755  -0.42811  -0.42482  -0.42394
  Beta  occ. eigenvalues --   -0.32886  -0.32709
  Beta virt. eigenvalues --   -0.10139   0.05196   0.05224   0.06467   0.06740
  Beta virt. eigenvalues --    0.07019   0.09739   0.10852   0.11026   0.11325
  Beta virt. eigenvalues --    0.12065   0.12380   0.14874   0.19469   0.19501

 Mulliken charges and spin densities:
               1          2
     1  C    0.181101  -0.040611
     2  C   -0.378281   0.297852
     3  C    0.180908  -0.038451
     4  C   -0.377238   0.295173
     5  C    0.180716  -0.045613
     6  C   -0.382921   0.296954
     7  C   -0.078708  -0.072039
     8  N    0.009313   0.112752
     9  C   -0.082907  -0.069472
    10  N    0.016289   0.108162
    11  C   -0.080039  -0.070412
    12  N    0.012565   0.110050
    13  C   -0.075226  -0.073355
    14  N    0.003359   0.115324
    15  C   -0.089190  -0.065071
    16  N    0.027762   0.099976
    17  C   -0.083007  -0.069570
    18  N    0.015503   0.108353
 Sum of Mulliken charges =  -1.00000   1.00000

 Dipole moment (field-independent basis, Debye):
    X=             42.8805    Y=              8.1939    Z=             -4.9547  Tot=             43.9366
 Quadrupole moment (field-independent basis, Debye-Ang):
   XX=           -553.7854   YY=           -184.2329   ZZ=           -104.3370
   XY=            -72.9144   XZ=             44.8646   YZ=              1.3578

 Normal termination of Gaussian 16 at Fri Oct 11 15:34:54 2024.
