 Gaussian 16, Revision C.01,
 Gaussian 16:  ES64L-G16RevC.01  3-Jul-2019

 ----------------------------------------------------------------------
 # wb97xd def2svp scrf=(smd,solvent=acetonitrile) g09default scf=(xqc,m
 axcycle=64) force guess=read nosymm
 ----------------------------------------------------------------------

 ----------
 Title Card
 ----------
 Symbolic Z-matrix:
 Charge = -2 Multiplicity = 1

                          Input orientation:
 ---------------------------------------------------------------------
 Center     Atomic      Atomic             Coordinates (Angstroms)
 Number     Number       Type             X           Y           Z
 ---------------------------------------------------------------------
      1          6           0       -8.935764   -0.870471    1.115711
      2          6           0       -8.938318    0.511583    1.253418
      3          6           0       -8.200639   -2.137713    0.979226
      4          6           0       -6.998510   -2.827771    0.898783
      5          6           0       -9.681937   -2.144033    0.991492
      6          6           0      -10.882904   -2.829631    0.935589
      7          6           0      -10.175395    1.193693    1.336169
      8          7           0      -11.213068    1.746773    1.406597
      9          6           0       -7.696172    1.196702    1.321463
     10          7           0       -6.666571    1.745188    1.374379
     11          6           0       -5.785916   -2.096380    0.952823
     12          7           0       -4.788241   -1.479427    1.000944
     13          6           0       -7.023178   -4.230474    0.746457
     14          7           0       -7.057352   -5.410448    0.618661
     15          6           0      -10.855312   -4.256436    0.817373
     16          7           0      -10.823181   -5.402002    0.728151
     17          6           0      -12.097188   -2.096515    1.001898
     18          7           0      -13.090249   -1.482816    1.049669
 ---------------------------------------------------------------------

 SCF Done:  E(RwB97XD) =  -785.011926251     A.U. after   13 cycles

 Alpha  occ. eigenvalues --  -14.43364 -14.43212 -14.43201 -14.43122 -14.43083
 Alpha  occ. eigenvalues --  -14.42875 -10.35933 -10.35847 -10.35829 -10.34336
 Alpha  occ. eigenvalues --  -10.34170 -10.34140 -10.34063 -10.34017 -10.33782
 Alpha  occ. eigenvalues --  -10.33226 -10.33051 -10.33028  -1.00142  -0.99294
 Alpha  occ. eigenvalues --   -0.98800  -0.98297  -0.97734  -0.97443  -0.97039
 Alpha  occ. eigenvalues --   -0.88586  -0.88543  -0.85309  -0.68659  -0.68542
 Alpha  occ. eigenvalues --   -0.65843  -0.65734  -0.65506  -0.63363  -0.51209
 Alpha  occ. eigenvalues --   -0.47843  -0.47709  -0.46228  -0.46095  -0.45378
 Alpha  occ. eigenvalues --   -0.45264  -0.45230  -0.44698  -0.43980  -0.43772
 Alpha  occ. eigenvalues --   -0.42759  -0.42624  -0.42455  -0.42134  -0.42063
 Alpha  occ. eigenvalues --   -0.41986  -0.41826  -0.40535  -0.39768  -0.39679
 Alpha  occ. eigenvalues --   -0.31959  -0.31727  -0.23130
 Alpha virt. eigenvalues --    0.06524   0.06570   0.08446   0.08692   0.09097
 Alpha virt. eigenvalues --    0.11729   0.11837   0.12154   0.12739   0.13930
 Alpha virt. eigenvalues --    0.14428   0.16408   0.20974   0.21062   0.23917

 Mulliken charges:
               1
     1  C    0.133964
     2  C   -0.474450
     3  C    0.132914
     4  C   -0.470737
     5  C    0.135739
     6  C   -0.481246
     7  C   -0.112164
     8  N   -0.056529
     9  C   -0.119258
    10  N   -0.042014
    11  C   -0.114825
    12  N   -0.048654
    13  C   -0.105655
    14  N   -0.069083
    15  C   -0.128967
    16  N   -0.017477
    17  C   -0.118984
    18  N   -0.042574
 Sum of Mulliken charges =  -2.00000

 Dipole moment (field-independent basis, Debye):
    X=             85.6800    Y=             16.3202    Z=             -9.9056  Tot=             87.7812
 Quadrupole moment (field-independent basis, Debye-Ang):
   XX=           -963.8136   YY=           -226.4150   ZZ=           -114.1321
   XY=           -144.6657   XZ=             89.2721   YZ=              7.3157

 Normal termination of Gaussian 16 at Fri Oct 11 15:36:12 2024.
