 Gaussian 16, Revision C.01,
 Gaussian 16:  ES64L-G16RevC.01  3-Jul-2019

 ----------------------------------------------------------------------
 # wb97xd def2svp scrf=(smd,solvent=acetonitrile) g09default scf=(xqc,m
 axcycle=64) force guess=read nosymm
 ----------------------------------------------------------------------

 ----------
 Title Card
 ----------
 Symbolic Z-matrix:
 Charge = -1 Multiplicity = 2

                          Input orientation:
 ---------------------------------------------------------------------
 Center     Atomic      Atomic             Coordinates (Angstroms)
 Number     Number       Type             X           Y           Z
 ---------------------------------------------------------------------
      1          6           0       -8.935764   -0.870471    1.115711
      2          6           0       -8.938318    0.511583    1.253418
      3          6           0       -8.200639   -2.137713    0.979226
      4          6           0       -6.998510   -2.827771    0.898783
      5          6           0       -9.681937   -2.144033    0.991492
      6          6           0      -10.882904   -2.829631    0.935589
      7          6           0      -10.175395    1.193693    1.336169
      8          7           0      -11.213068    1.746773    1.406597
      9          6           0       -7.696172    1.196702    1.321463
     10          7           0       -6.666571    1.745188    1.374379
     11          6           0       -5.785916   -2.096380    0.952823
     12          7           0       -4.788241   -1.479427    1.000944
     13          6           0       -7.023178   -4.230474    0.746457
     14          7           0       -7.057352   -5.410448    0.618661
     15          6           0      -10.855312   -4.256436    0.817373
     16          7           0      -10.823181   -5.402002    0.728151
     17          6           0      -12.097188   -2.096515    1.001898
     18          7           0      -13.090249   -1.482816    1.049669
 ---------------------------------------------------------------------

 SCF Done:  E(UwB97XD) =  -784.845381000     A.U. after   18 cycles

 Alpha  occ. eigenvalues --  -14.46589 -14.46395 -14.46327 -14.46206 -14.46189
 Alpha  occ. eigenvalues --  -14.45820 -10.39212 -10.39189 -10.39166 -10.38407
 Alpha  occ. eigenvalues --  -10.38298 -10.38252 -10.36747 -10.36568 -10.36510
 Alpha  occ. eigenvalues --  -10.36406 -10.36382 -10.36071  -1.03396  -1.02068
 Alpha  occ. eigenvalues --   -1.01656  -1.00935  -1.00470  -1.00293  -1.00037
 Alpha  occ. eigenvalues --   -0.92370  -0.92337  -0.89315  -0.72122  -0.72001
 Alpha  occ. eigenvalues --   -0.69385  -0.69258  -0.69003  -0.66973  -0.54518
 Alpha  occ. eigenvalues --   -0.50972  -0.50907  -0.49084  -0.48830  -0.47777
 Alpha  occ. eigenvalues --   -0.47682  -0.47621  -0.47139  -0.46643  -0.46467
 Alpha  occ. eigenvalues --   -0.45495  -0.44998  -0.44953  -0.44668  -0.44498
 Alpha  occ. eigenvalues --   -0.44452  -0.44341  -0.42916  -0.42414  -0.42306
 Alpha  occ. eigenvalues --   -0.35619  -0.35439  -0.27405
 Alpha virt. eigenvalues --    0.03748   0.03804   0.06036   0.06272   0.06730
 Alpha virt. eigenvalues --    0.09137   0.09347   0.09682   0.10322   0.11478
 Alpha virt. eigenvalues --    0.12033   0.14621   0.19189   0.19259   0.20732

  Beta  occ. eigenvalues --  -14.46378 -14.46193 -14.46135 -14.46017 -14.46001
  Beta  occ. eigenvalues --  -14.45656 -10.39248 -10.39218 -10.39196 -10.38065
  Beta  occ. eigenvalues --  -10.37954 -10.37912 -10.36847 -10.36664 -10.36602
  Beta  occ. eigenvalues --  -10.36497 -10.36473 -10.36151  -1.03026  -1.01743
  Beta  occ. eigenvalues --   -1.01303  -1.00626  -1.00135  -0.99943  -0.99680
  Beta  occ. eigenvalues --   -0.91647  -0.91611  -0.88348  -0.71960  -0.71848
  Beta  occ. eigenvalues --   -0.69163  -0.69052  -0.68769  -0.66803  -0.53587
  Beta  occ. eigenvalues --   -0.49712  -0.49613  -0.48903  -0.48654  -0.47416
  Beta  occ. eigenvalues --   -0.47311  -0.47282  -0.46786  -0.46388  -0.46235
  Beta  occ. eigenvalues --   -0.44850  -0.44395  -0.44360  -0.44202  -0.44120
  Beta  occ. eigenvalues --   -0.43774  -0.43571  -0.42772  -0.42275  -0.42152
  Beta  occ. eigenvalues --   -0.32979  -0.32686
  Beta virt. eigenvalues --   -0.10129   0.04686   0.04718   0.06149   0.06380
  Beta virt. eigenvalues --    0.06823   0.09131   0.10380   0.10669   0.11168
  Beta virt. eigenvalues --    0.11533   0.12086   0.14856   0.19396   0.19460

 Mulliken charges and spin densities:
               1          2
     1  C    0.166625  -0.037078
     2  C   -0.372707   0.293771
     3  C    0.165777  -0.033087
     4  C   -0.370205   0.289312
     5  C    0.166144  -0.046393
     6  C   -0.379076   0.293273
     7  C   -0.064547  -0.074237
     8  N   -0.001652   0.117069
     9  C   -0.071843  -0.069690
    10  N    0.010458   0.108935
    11  C   -0.067419  -0.071063
    12  N    0.004703   0.111693
    13  C   -0.058049  -0.076991
    14  N   -0.012576   0.122285
    15  C   -0.083057  -0.062344
    16  N    0.030408   0.095204
    17  C   -0.072601  -0.069859
    18  N    0.009619   0.109200
 Sum of Mulliken charges =  -1.00000   1.00000

 Dipole moment (field-independent basis, Debye):
    X=             42.8363    Y=              8.1719    Z=             -4.9532  Tot=             43.8892
 Quadrupole moment (field-independent basis, Debye-Ang):
   XX=           -553.0710   YY=           -184.2582   ZZ=           -104.6775
   XY=            -72.4152   XZ=             44.8330   YZ=              1.3424

 Normal termination of Gaussian 16 at Fri Oct 11 15:35:50 2024.
