 Gaussian 16, Revision C.01,
 Gaussian 16:  ES64L-G16RevC.01  3-Jul-2019

 ----------------------------------------------------------------------
 # wb97xd def2svp scrf=(smd,solvent=acetonitrile) g09default scf=(xqc,m
 axcycle=64) nosymm
 ----------------------------------------------------------------------

 ----------
 Title Card
 ----------
 Symbolic Z-matrix:
 Charge = -2 Multiplicity = 1

                          Input orientation:
 ---------------------------------------------------------------------
 Center     Atomic      Atomic             Coordinates (Angstroms)
 Number     Number       Type             X           Y           Z
 ---------------------------------------------------------------------
      1          6           0       -8.939320   -0.912920    1.107630
      2          6           0       -8.938442    0.459611    1.249240
      3          6           0       -8.240403   -2.118294    0.981776
      4          6           0       -7.044572   -2.801612    0.898736
      5          6           0       -9.639446   -2.118851    0.994147
      6          6           0      -10.835687   -2.804183    0.938203
      7          6           0      -10.168767    1.171727    1.334741
      8          7           0      -11.181240    1.733303    1.402749
      9          6           0       -7.707158    1.171929    1.317701
     10          7           0       -6.694132    1.733972    1.372404
     11          6           0       -5.809925   -2.094016    0.954805
     12          7           0       -4.815065   -1.499723    1.001416
     13          6           0       -7.037375   -4.218008    0.750217
     14          7           0       -7.053421   -5.371187    0.627577
     15          6           0      -10.843017   -4.223297    0.818616
     16          7           0      -10.826973   -5.379277    0.726129
     17          6           0      -12.070213   -2.096997    1.001697
     18          7           0      -13.064739   -1.502355    1.051021
 ---------------------------------------------------------------------

 SCF Done:  E(RwB97XD) =  -785.030450081     A.U. after   12 cycles

 Alpha  occ. eigenvalues --  -14.42744 -14.42742 -14.42741 -14.42738 -14.42737
 Alpha  occ. eigenvalues --  -14.42733 -10.34737 -10.34672 -10.34664 -10.33669
 Alpha  occ. eigenvalues --  -10.33668 -10.33667 -10.33666 -10.33662 -10.33661
 Alpha  occ. eigenvalues --  -10.32651 -10.32650 -10.32642  -1.02557  -0.99171
 Alpha  occ. eigenvalues --   -0.99171  -0.98711  -0.98137  -0.98134  -0.98054
 Alpha  occ. eigenvalues --   -0.88278  -0.88274  -0.85946  -0.68728  -0.68720
 Alpha  occ. eigenvalues --   -0.65081  -0.65069  -0.64785  -0.64162  -0.52336
 Alpha  occ. eigenvalues --   -0.47686  -0.47684  -0.46588  -0.46580  -0.45200
 Alpha  occ. eigenvalues --   -0.45079  -0.45077  -0.44539  -0.44110  -0.44109
 Alpha  occ. eigenvalues --   -0.43699  -0.42912  -0.42309  -0.42305  -0.42119
 Alpha  occ. eigenvalues --   -0.42021  -0.42010  -0.40608  -0.40199  -0.40197
 Alpha  occ. eigenvalues --   -0.31650  -0.31647  -0.23359
 Alpha virt. eigenvalues --    0.07634   0.07634   0.08976   0.09468   0.09478
 Alpha virt. eigenvalues --    0.12786   0.12791   0.13031   0.13243   0.14966
 Alpha virt. eigenvalues --    0.14973   0.16367   0.21073   0.21086   0.24180

 Mulliken charges:
               1
     1  C    0.164108
     2  C   -0.487871
     3  C    0.164266
     4  C   -0.488487
     5  C    0.164009
     6  C   -0.488491
     7  C   -0.138889
     8  N   -0.032310
     9  C   -0.138922
    10  N   -0.032343
    11  C   -0.138729
    12  N   -0.032298
    13  C   -0.139052
    14  N   -0.032481
    15  C   -0.139076
    16  N   -0.032525
    17  C   -0.138648
    18  N   -0.032260
 Sum of Mulliken charges =  -2.00000

 Dipole moment (field-independent basis, Debye):
    X=             85.8727    Y=             16.4635    Z=             -9.8999  Tot=             87.9953
 Quadrupole moment (field-independent basis, Debye-Ang):
   XX=           -967.0252   YY=           -226.6244   ZZ=           -113.4836
   XY=           -147.2497   XZ=             89.3211   YZ=              7.4469

 1\1\GINC-X10P1N4\SP\RwB97XD\def2SVP\C12N6(2-)\MAYUMIAO\11-Oct-2024\0\\
 # wb97xd def2svp scrf=(smd,solvent=acetonitrile) g09default scf=(xqc,m
 axcycle=64) nosymm\\Title Card\\-2,1\C,0,-8.93932,-0.91292,1.10763\C,0
 ,-8.938442,0.459611,1.24924\C,0,-8.240403,-2.118294,0.981776\C,0,-7.04
 4572,-2.801612,0.898736\C,0,-9.639446,-2.118851,0.994147\C,0,-10.83568
 7,-2.804183,0.938203\C,0,-10.168767,1.171727,1.334741\N,0,-11.18124,1.
 733303,1.402749\C,0,-7.707158,1.171929,1.317701\N,0,-6.694132,1.733972
 ,1.372404\C,0,-5.809925,-2.094016,0.954805\N,0,-4.815065,-1.499723,1.0

 Normal termination of Gaussian 16 at Fri Oct 11 15:27:43 2024.
