 Gaussian 16, Revision C.01,
 Gaussian 16:  ES64L-G16RevC.01  3-Jul-2019

 ----------------------------------------------------------------------
 # wb97xd nosymm geom=modredundant guess=fragment=2 def2svp g09default
 scf=(xqc,maxcycle=64)
 ----------------------------------------------------------------------

 ----------
 Title Card
 ----------
 Symbolic Z-matrix:
 Charge = -1 Multiplicity = 1 in supermolecule
 Charge = -1 Multiplicity = 2 in fragment      1.
 Charge =  0 Multiplicity =-2 in fragment      2.

                          Input orientation:
 ---------------------------------------------------------------------
 Center     Atomic      Atomic             Coordinates (Angstroms)
 Number     Number       Type             X           Y           Z
 ---------------------------------------------------------------------
      1         17           0      -10.554906    8.585801   10.581710
      2          6           0       -9.067327    5.069815   12.528346
      3          6           0       -9.799352    4.653751   11.398254
      4          6           0      -10.663404    3.552733   11.555130
      5          6           0      -10.797161    2.901310   12.779587
      6          6           0      -10.065113    3.329993   13.887808
      7          6           0       -9.198697    4.416736   13.751615
      8          1           0       -8.383623    5.918533   12.452673
      9          1           0      -11.242058    3.205867   10.694789
     10          1           0      -11.478800    2.051808   12.868870
     11          1           0      -10.169025    2.822544   14.849552
     12          1           0       -8.619084    4.764011   14.610684
     13          6           0       -9.730253    5.341133   10.101934
     14          6           0       -9.126254    6.529693    9.880730
     15          1           0      -10.357273    4.914650    9.311136
     16          1           0       -9.097248    6.933972    8.868051
     17          1           0       -8.387790    6.931766   10.574554
     18          8           0       -0.673041   -2.074154    7.254818
     19          8           0       -8.283580   -1.409737    7.348140
     20          8           0       -6.818083    1.256428   10.504906
     21          8           0       -2.108248   -4.752418   10.480161
     22         74           0       -3.104746    0.464384    6.537870
     23         74           0       -5.932951   -3.999653    6.578839
     24         74           0       -3.357832    0.652942   11.223656
     25         74           0       -5.556107   -4.145747   11.266444
     26         74           0       -2.375293   -2.746115    6.256073
     27         74           0       -6.649273   -0.810360    6.288481
     28         74           0       -6.423122   -0.469113   11.548962
     29         74           0       -2.480665   -3.033098   11.531136
     30          8           0       -2.989599    1.646549    5.293389
     31          8           0       -6.027548   -5.229946    5.380025
     32          8           0       -2.349797    1.384282   12.410686
     33          8           0       -6.520647   -4.879951   12.486528
     34          8           0       -2.378955   -1.101762    5.372742
     35          8           0       -6.598543   -2.447205    5.422584
     36          8           0       -5.000549    0.374740   12.394940
     37          8           0       -3.877799   -3.865416   12.412170
     38          8           0        0.511437   -0.395552    9.147401
     39          8           0       -9.465336   -3.078610    9.285958
     40          8           0       -6.077216    3.161455    8.569908
     41          8           0       -2.886630   -6.663387    8.565472
     42          8           0       -1.404283    0.539234    7.307119
     43          8           0       -7.572116   -4.079291    7.429727
     44          8           0       -4.183447    2.087900   10.393132
     45          8           0       -4.738179   -5.584122   10.423738
     46          8           0       -1.512610   -3.747577    5.153399
     47          8           0       -7.464674    0.219617    5.177436
     48          8           0       -7.714613   -0.324794   12.675347
     49          8           0       -1.162181   -3.159110   12.629489
     50         74           0       -1.052294   -0.960714    8.702999
     51         74           0       -7.913017   -2.555430    8.762570
     52         74           0       -5.673957    1.570836    9.088562
     53         74           0       -3.286303   -5.073770    9.088161
     54          8           0       -4.102427   -3.271846    5.951711
     55          8           0       -4.894895   -0.295692    5.983649
     56          8           0       -5.920249   -2.216398   11.842936
     57          8           0       -2.968210   -1.277026   11.800094
     58          8           0       -4.063064    1.362357    7.812771
     59          8           0       -4.901405   -4.851338    7.845993
     60          8           0       -2.102464    0.274766    9.915324
     61          8           0       -6.843281   -3.782137    9.998797
     62          8           0       -2.432475   -4.078042    7.779096
     63          8           0       -6.528737    0.578741    7.791242
     64          8           0       -7.539493   -1.289270   10.047672
     65          8           0       -1.367477   -2.219407    9.995783
     66          8           0       -2.992602   -1.323757    7.779664
     67          8           0       -5.975500   -2.206602    7.818586
     68          8           0       -4.908545   -0.258587    9.992530
     69          8           0       -4.022652   -3.238034   10.007076
     70         19           0       -3.228085   -6.213564    5.649125
     71         19           0       -0.038528   -0.443437   12.163004
     72         19           0       -8.872399   -3.047504   12.230611
     73         23           0       -4.477137   -1.757056    8.901813
 ---------------------------------------------------------------------

 SCF Done:  E(UwB97XD) =  -6558.12517980     A.U. after   65 cycles
 SCF Done:  E(UwB97XD) =  -6558.12517980     a.u. after    2 cycles
 SCF Done:  E(UwB97XD) =  -769.322845667     A.U. after   31 cycles

 Alpha  occ. eigenvalues -- -101.63391 -10.34557 -10.33649 -10.33194 -10.32544
 Alpha  occ. eigenvalues --  -10.32465 -10.32458 -10.32061 -10.32046  -9.53834
 Alpha  occ. eigenvalues --   -7.29865  -7.28160  -7.28152  -0.97635  -0.91345
 Alpha  occ. eigenvalues --   -0.85823  -0.85515  -0.83750  -0.73613  -0.71236
 Alpha  occ. eigenvalues --   -0.66905  -0.62473  -0.58490  -0.56128  -0.54470
 Alpha  occ. eigenvalues --   -0.52398  -0.52069  -0.49093  -0.47715  -0.44894
 Alpha  occ. eigenvalues --   -0.43903  -0.43616  -0.38330  -0.35732  -0.35702
 Alpha  occ. eigenvalues --   -0.35162  -0.31399
 Alpha virt. eigenvalues --    0.00884   0.04335   0.10105   0.13009   0.14517
 Alpha virt. eigenvalues --    0.16012   0.18723   0.19306   0.21764   0.22623
 Alpha virt. eigenvalues --    0.24145   0.26784   0.31637   0.33414   0.35092

  Beta  occ. eigenvalues -- -101.62930 -10.34159 -10.33685 -10.33288 -10.32434
  Beta  occ. eigenvalues --  -10.32354 -10.32350 -10.32123 -10.32107  -9.53333
  Beta  occ. eigenvalues --   -7.28277  -7.27813  -7.27806  -0.97439  -0.90704
  Beta  occ. eigenvalues --   -0.85644  -0.84111  -0.81210  -0.73391  -0.71147
  Beta  occ. eigenvalues --   -0.66668  -0.62271  -0.58302  -0.55969  -0.54437
  Beta  occ. eigenvalues --   -0.52270  -0.51903  -0.48418  -0.47595  -0.44768
  Beta  occ. eigenvalues --   -0.43816  -0.40434  -0.34906  -0.34678  -0.34585
  Beta  occ. eigenvalues --   -0.33068
  Beta virt. eigenvalues --   -0.10354   0.01915   0.04705   0.11494   0.13067
  Beta virt. eigenvalues --    0.14645   0.16043   0.18766   0.19327   0.21828
  Beta virt. eigenvalues --    0.22957   0.24300   0.26861   0.31703   0.33680

 Mulliken charges and spin densities:
               1          2
     1  Cl  -0.226348   0.690359
     2  C   -0.021080   0.099648
     3  C    0.023275  -0.095775
     4  C   -0.032887   0.099778
     5  C   -0.014907  -0.061469
     6  C   -0.005786   0.105664
     7  C   -0.016791  -0.060481
     8  H    0.020944  -0.004316
     9  H    0.020934  -0.004255
    10  H    0.030940   0.002267
    11  H    0.033741  -0.004683
    12  H    0.031065   0.002205
    13  C    0.004281   0.366148
    14  C   -0.055323  -0.134798
    15  H    0.042828  -0.014846
    16  H    0.084727   0.006293
    17  H    0.080388   0.008261
    18  O    0.000000   0.000000
    19  O    0.000000   0.000000
    20  O    0.000000   0.000000
    21  O    0.000000   0.000000
    22  W    0.000000   0.000000
    23  W    0.000000   0.000000
    24  W    0.000000   0.000000
    25  W    0.000000   0.000000
    26  W    0.000000   0.000000
    27  W    0.000000   0.000000
    28  W    0.000000   0.000000
    29  W    0.000000   0.000000
    30  O    0.000000   0.000000
    31  O    0.000000   0.000000
    32  O    0.000000   0.000000
    33  O    0.000000   0.000000
    34  O    0.000000   0.000000
    35  O    0.000000   0.000000
    36  O    0.000000   0.000000
    37  O    0.000000   0.000000
    38  O    0.000000   0.000000
    39  O    0.000000   0.000000
    40  O    0.000000   0.000000
    41  O    0.000000   0.000000
    42  O    0.000000   0.000000
    43  O    0.000000   0.000000
    44  O    0.000000   0.000000
    45  O    0.000000   0.000000
    46  O    0.000000   0.000000
    47  O    0.000000   0.000000
    48  O    0.000000   0.000000
    49  O    0.000000   0.000000
    50  W    0.000000   0.000000
    51  W    0.000000   0.000000
    52  W    0.000000   0.000000
    53  W    0.000000   0.000000
    54  O    0.000000   0.000000
    55  O    0.000000   0.000000
    56  O    0.000000   0.000000
    57  O    0.000000   0.000000
    58  O    0.000000   0.000000
    59  O    0.000000   0.000000
    60  O    0.000000   0.000000
    61  O    0.000000   0.000000
    62  O    0.000000   0.000000
    63  O    0.000000   0.000000
    64  O    0.000000   0.000000
    65  O    0.000000   0.000000
    66  O    0.000000   0.000000
    67  O    0.000000   0.000000
    68  O    0.000000   0.000000
    69  O    0.000000   0.000000
    70  K    0.000000   0.000000
    71  K    0.000000   0.000000
    72  K    0.000000   0.000000
    73  V    0.000000   0.000000
 Sum of Mulliken charges =  -0.00000   1.00000

 Dipole moment (field-independent basis, Debye):
    X=              1.1081    Y=             -3.7152    Z=              0.5402  Tot=              3.9144
 Quadrupole moment (field-independent basis, Debye-Ang):
   XX=            -81.3030   YY=           -106.9386   ZZ=            -39.9412
   XY=             50.0223   XZ=              7.9183   YZ=            -39.4938

 Normal termination of Gaussian 16 at Fri May 31 19:16:20 2024.
