 Gaussian 16, Revision C.01,
 Gaussian 16:  ES64L-G16RevC.01  3-Jul-2019

 ----------------------------------------------------------------------
 # def2svp wb97xd scrf=(smd,solvent=acetonitrile) g09default scf=(xqc,m
 axcycle=64) force guess=read nosymm
 ----------------------------------------------------------------------

 ----------
 Title Card
 ----------
 Symbolic Z-matrix:
 Charge = -1 Multiplicity = 1

                          Input orientation:
 ---------------------------------------------------------------------
 Center     Atomic      Atomic             Coordinates (Angstroms)
 Number     Number       Type             X           Y           Z
 ---------------------------------------------------------------------
      1         17           0       -9.841306    7.499368   10.361452
      2          6           0       -8.306861    4.256640   12.241319
      3          6           0       -9.077859    3.940136   11.104968
      4          6           0      -10.010850    2.889255   11.191795
      5          6           0      -10.184395    2.190205   12.379553
      6          6           0       -9.425520    2.524640   13.500262
      7          6           0       -8.481606    3.553388   13.425795
      8          1           0       -7.571117    5.061660   12.198808
      9          1           0      -10.599775    2.628238   10.308795
     10          1           0      -10.912492    1.378269   12.433440
     11          1           0       -9.559006    1.976320   14.434914
     12          1           0       -7.882726    3.808586   14.302952
     13          6           0       -8.954606    4.655168    9.853344
     14          6           0       -8.112944    5.713774    9.596980
     15          1           0       -9.609544    4.320853    9.042953
     16          1           0       -8.041569    6.115888    8.585884
     17          1           0       -7.358226    6.040702   10.313927
     18          8           0       -0.969952   -1.765159    7.441976
     19          8           0       -8.450934   -1.322018    7.449723
     20          8           0       -7.089964    1.369734   10.506087
     21          8           0       -2.309377   -4.377573   10.579573
     22         74           0       -3.420091    0.735915    6.534231
     23         74           0       -6.024574   -3.814902    6.612660
     24         74           0       -3.651525    0.923061   11.374776
     25         74           0       -5.759418   -3.870221   11.445949
     26         74           0       -2.482441   -2.524532    6.383973
     27         74           0       -6.936296   -0.556160    6.361058
     28         74           0       -6.806178   -0.250556   11.592033
     29         74           0       -2.596844   -2.693775   11.620668
     30          8           0       -3.209513    1.935649    5.360234
     31          8           0       -6.133986   -5.074045    5.470900
     32          8           0       -2.714316    1.756797   12.527812
     33          8           0       -6.690126   -4.667514   12.629366
     34          8           0       -2.681537   -0.857949    5.570274
     35          8           0       -6.732003   -2.279060    5.609581
     36          8           0       -5.330113    0.586804   12.385441
     37          8           0       -4.065815   -3.527051   12.433306
     38          8           0        0.283060   -0.005078    9.283063
     39          8           0       -9.704452   -3.013900    9.345179
     40          8           0       -6.455188    3.409101    8.674173
     41          8           0       -2.973429   -6.437583    8.738770
     42          8           0       -1.787950    0.798126    7.481325
     43          8           0       -7.639926   -3.888129    7.553409
     44          8           0       -4.547488    2.254519   10.434253
     45          8           0       -4.861376   -5.239461   10.532287
     46          8           0       -1.655148   -3.474705    5.233975
     47          8           0       -7.812307    0.259484    5.163257
     48          8           0       -8.029513   -0.181012   12.774865
     49          8           0       -1.349698   -2.790039   12.780098
     50         74           0       -1.270138   -0.541977    8.826576
     51         74           0       -8.152699   -2.486254    8.870612
     52         74           0       -5.963473    1.838228    9.067311
     53         74           0       -3.453663   -4.861186    9.179213
     54          8           0       -4.242587   -3.073041    6.086843
     55          8           0       -5.171068   -0.051781    6.035802
     56          8           0       -6.167399   -1.989879   11.908739
     57          8           0       -3.214949   -0.957953   11.915158
     58          8           0       -4.399329    1.591339    7.867709
     59          8           0       -5.013242   -4.649750    7.949128
     60          8           0       -2.365947    0.591739   10.061887
     61          8           0       -7.046914   -3.597431   10.122834
     62          8           0       -2.569892   -3.863190    7.870430
     63          8           0       -6.861367    0.788812    7.812508
     64          8           0       -7.847968   -1.159120   10.153248
     65          8           0       -1.573396   -1.844265   10.143714
     66          8           0       -3.330673   -1.134888    8.000143
     67          8           0       -6.090229   -1.937368    8.024758
     68          8           0       -5.184432   -0.151062    9.963654
     69          8           0       -4.213008   -2.856234    9.999600
     70         19           0       -3.247572   -6.066808    5.704043
     71         19           0       -0.200515    0.016222   12.311466
     72         19           0       -9.213918   -2.917958   12.364533
     73         23           0       -4.705580   -1.516462    8.994553
 ---------------------------------------------------------------------

 SCF Done:  E(RwB97XD) =  -7327.65082486     A.U. after   32 cycles

 Alpha  occ. eigenvalues -- -197.34244-129.99967-129.99924-129.99808-101.48781
 Alpha  occ. eigenvalues --  -22.66926 -19.35958 -19.35925 -19.35920 -19.35875
 Alpha  occ. eigenvalues --  -19.30963 -19.30906 -19.30869 -19.30854 -19.30845
 Alpha  occ. eigenvalues --  -19.30842 -19.30815 -19.30741 -19.30595 -19.30551
 Alpha  occ. eigenvalues --  -19.30458 -19.29977 -19.29810 -19.29763 -19.29738
 Alpha  occ. eigenvalues --  -19.29695 -19.29690 -19.29689 -19.29669 -19.29635
 Alpha  occ. eigenvalues --  -19.29634 -19.29603 -19.29582 -19.29540 -19.29519
 Alpha  occ. eigenvalues --  -19.29512 -19.29506 -19.29482 -19.29467 -19.29458
 Alpha  occ. eigenvalues --  -19.29351 -19.29341 -19.29315 -19.29310 -19.29241
 Alpha  occ. eigenvalues --  -19.28974 -19.15943 -19.15933 -19.15909 -13.37361
 Alpha  occ. eigenvalues --  -13.37317 -13.37189 -10.70292 -10.70284 -10.70283
 Alpha  occ. eigenvalues --  -10.70249 -10.70240 -10.70240 -10.70122 -10.70113
 Alpha  occ. eigenvalues --  -10.70111 -10.28988 -10.28860 -10.28775 -10.28299
 Alpha  occ. eigenvalues --  -10.28292 -10.28166 -10.28162 -10.25609  -9.39308
 Alpha  occ. eigenvalues --   -7.14177  -7.14053  -7.14041  -3.23634  -3.23614
 Alpha  occ. eigenvalues --   -3.23606  -3.23593  -3.23580  -3.23565  -3.23492
 Alpha  occ. eigenvalues --   -3.23444  -3.23358  -3.23192  -3.23173  -3.22675
 Alpha  occ. eigenvalues --   -2.95133  -1.97197  -1.97171  -1.97164  -1.88043
 Alpha  occ. eigenvalues --   -1.87967  -1.87944  -1.87801  -1.87769  -1.87758
 Alpha  occ. eigenvalues --   -1.87739  -1.87689  -1.87567  -1.87490  -1.87451
 Alpha  occ. eigenvalues --   -1.86967  -1.86946  -1.86834  -1.86822  -1.86785
 Alpha  occ. eigenvalues --   -1.86763  -1.86684  -1.86653  -1.86620  -1.86596
 Alpha  occ. eigenvalues --   -1.86579  -1.86507  -1.86488  -1.86446  -1.86415
 Alpha  occ. eigenvalues --   -1.86372  -1.86354  -1.86322  -1.86233  -1.86205
 Alpha  occ. eigenvalues --   -1.86150  -1.86105  -1.86034  -1.85726  -1.85611
 Alpha  occ. eigenvalues --   -1.51065  -1.51024  -1.50899  -1.14739  -1.13198
 Alpha  occ. eigenvalues --   -1.13086  -1.13039  -1.09666  -1.08966  -1.08865
 Alpha  occ. eigenvalues --   -1.08604  -1.08213  -1.08114  -1.08062  -1.07228
 Alpha  occ. eigenvalues --   -1.07189  -1.07149  -1.06659  -1.06583  -1.05628
 Alpha  occ. eigenvalues --   -1.05626  -1.05313  -1.05284  -1.05243  -1.04516
 Alpha  occ. eigenvalues --   -1.04505  -1.04455  -1.04238  -1.04184  -1.04167
 Alpha  occ. eigenvalues --   -1.04119  -1.04083  -1.04022  -1.03924  -1.03842
 Alpha  occ. eigenvalues --   -1.03775  -1.03715  -1.03461  -1.03442  -1.03386
 Alpha  occ. eigenvalues --   -1.03324  -1.03307  -1.02803  -0.93726  -0.86563
 Alpha  occ. eigenvalues --   -0.86522  -0.86407  -0.86348  -0.86344  -0.86306
 Alpha  occ. eigenvalues --   -0.86301  -0.86187  -0.86172  -0.85510  -0.82334
 Alpha  occ. eigenvalues --   -0.78759  -0.72032  -0.69164  -0.67452  -0.64852
 Alpha  occ. eigenvalues --   -0.64700  -0.64630  -0.64377  -0.64188  -0.64117
 Alpha  occ. eigenvalues --   -0.64099  -0.63902  -0.63701  -0.63425  -0.62555
 Alpha  occ. eigenvalues --   -0.62521  -0.62444  -0.62393  -0.61438  -0.61411
 Alpha  occ. eigenvalues --   -0.61309  -0.60805  -0.60036  -0.59988  -0.59960
 Alpha  occ. eigenvalues --   -0.59860  -0.59751  -0.58432  -0.58408  -0.58357
 Alpha  occ. eigenvalues --   -0.58286  -0.58244  -0.58167  -0.57971  -0.56620
 Alpha  occ. eigenvalues --   -0.56590  -0.56406  -0.55969  -0.55114  -0.55069
 Alpha  occ. eigenvalues --   -0.54990  -0.54611  -0.54478  -0.54420  -0.54355
 Alpha  occ. eigenvalues --   -0.54221  -0.53824  -0.53504  -0.53432  -0.53218
 Alpha  occ. eigenvalues --   -0.53086  -0.52973  -0.52836  -0.52752  -0.52669
 Alpha  occ. eigenvalues --   -0.52607  -0.52560  -0.52411  -0.52033  -0.51992
 Alpha  occ. eigenvalues --   -0.51903  -0.51781  -0.51762  -0.51733  -0.51587
 Alpha  occ. eigenvalues --   -0.51501  -0.51447  -0.50642  -0.50496  -0.50489
 Alpha  occ. eigenvalues --   -0.50364  -0.50337  -0.50226  -0.50199  -0.49579
 Alpha  occ. eigenvalues --   -0.49430  -0.49406  -0.49301  -0.49110  -0.49020
 Alpha  occ. eigenvalues --   -0.48842  -0.48536  -0.48323  -0.48148  -0.47665
 Alpha  occ. eigenvalues --   -0.47607  -0.47544  -0.47479  -0.47353  -0.47213
 Alpha  occ. eigenvalues --   -0.46979  -0.46912  -0.46809  -0.46774  -0.46689
 Alpha  occ. eigenvalues --   -0.46656  -0.46426  -0.45486  -0.45274  -0.45242
 Alpha  occ. eigenvalues --   -0.45114  -0.44671  -0.44603  -0.44379  -0.43555
 Alpha  occ. eigenvalues --   -0.43481  -0.43459  -0.43387  -0.43296  -0.43101
 Alpha  occ. eigenvalues --   -0.43083  -0.43032  -0.43005  -0.42973  -0.42959
 Alpha  occ. eigenvalues --   -0.42838  -0.42700  -0.42632  -0.42482  -0.42454
 Alpha  occ. eigenvalues --   -0.42429  -0.42283  -0.42189  -0.41985  -0.41952
 Alpha  occ. eigenvalues --   -0.41605  -0.41587  -0.41396  -0.40942  -0.40914
 Alpha  occ. eigenvalues --   -0.40904  -0.40601  -0.39849  -0.39829  -0.39789
 Alpha  occ. eigenvalues --   -0.36309  -0.32149  -0.29493  -0.25616  -0.25483
 Alpha  occ. eigenvalues --   -0.21006
 Alpha virt. eigenvalues --   -0.13538  -0.13060  -0.08932  -0.08476  -0.08328
 Alpha virt. eigenvalues --   -0.08022  -0.08006  -0.07047  -0.07008  -0.06882
 Alpha virt. eigenvalues --   -0.04299  -0.04091  -0.04046  -0.03731  -0.03383

 Mulliken charges:
               1
     1  Cl  -0.839405
     2  C   -0.095448
     3  C    0.060595
     4  C   -0.089911
     5  C   -0.031246
     6  C   -0.047819
     7  C   -0.049717
     8  H    0.017905
     9  H    0.021273
    10  H    0.034298
    11  H    0.028301
    12  H    0.033414
    13  C   -0.101769
    14  C    0.052005
    15  H   -0.006889
    16  H    0.031697
    17  H    0.035789
    18  O   -0.655506
    19  O   -0.653536
    20  O   -0.645776
    21  O   -0.655941
    22  W    1.730182
    23  W    1.669439
    24  W    1.677711
    25  W    1.690811
    26  W    1.678724
    27  W    1.732123
    28  W    1.626128
    29  W    1.691166
    30  O   -0.318757
    31  O   -0.366304
    32  O   -0.366638
    33  O   -0.364633
    34  O   -0.657235
    35  O   -0.665936
    36  O   -0.655327
    37  O   -0.657734
    38  O   -0.368406
    39  O   -0.369903
    40  O   -0.291161
    41  O   -0.368023
    42  O   -0.664558
    43  O   -0.655784
    44  O   -0.652002
    45  O   -0.658621
    46  O   -0.368070
    47  O   -0.320614
    48  O   -0.356128
    49  O   -0.367583
    50  W    1.677678
    51  W    1.681478
    52  W    1.672116
    53  W    1.687147
    54  O   -0.723162
    55  O   -0.706523
    56  O   -0.726748
    57  O   -0.720816
    58  O   -0.705207
    59  O   -0.726948
    60  O   -0.724173
    61  O   -0.722535
    62  O   -0.722338
    63  O   -0.706400
    64  O   -0.721934
    65  O   -0.726456
    66  O   -0.810810
    67  O   -0.810508
    68  O   -0.805813
    69  O   -0.820333
    70  K    0.860385
    71  K    0.859725
    72  K    0.855150
    73  V    1.141845
 Sum of Mulliken charges =  -1.00000

 Dipole moment (field-independent basis, Debye):
    X=             51.0864    Y=            -46.2935    Z=            -39.0468  Tot=             79.2311
 Quadrupole moment (field-independent basis, Debye-Ang):
   XX=          -1067.2833   YY=           -825.6575   ZZ=           -929.7625
   XY=            406.8160   XZ=            460.0882   YZ=           -425.5320

 Normal termination of Gaussian 16 at Sat Jun  1 10:07:42 2024.
