 Gaussian 16, Revision C.01,
 Gaussian 16:  ES64L-G16RevC.01  3-Jul-2019

 ----------------------------------------------------------------------
 # def2svp wb97xd scrf=(smd,solvent=acetonitrile) g09default scf=(xqc,m
 axcycle=64) force guess=read nosymm
 ----------------------------------------------------------------------

 ----------
 Title Card
 ----------
 Symbolic Z-matrix:
 Charge = -1 Multiplicity = 1

                          Input orientation:
 ---------------------------------------------------------------------
 Center     Atomic      Atomic             Coordinates (Angstroms)
 Number     Number       Type             X           Y           Z
 ---------------------------------------------------------------------
      1         17           0       -9.841306    7.499368   10.361452
      2          6           0       -8.306861    4.256640   12.241319
      3          6           0       -9.077859    3.940136   11.104968
      4          6           0      -10.010850    2.889255   11.191795
      5          6           0      -10.184395    2.190205   12.379553
      6          6           0       -9.425520    2.524640   13.500262
      7          6           0       -8.481606    3.553388   13.425795
      8          1           0       -7.571117    5.061660   12.198808
      9          1           0      -10.599775    2.628238   10.308795
     10          1           0      -10.912492    1.378269   12.433440
     11          1           0       -9.559006    1.976320   14.434914
     12          1           0       -7.882726    3.808586   14.302952
     13          6           0       -8.954606    4.655168    9.853344
     14          6           0       -8.112944    5.713774    9.596980
     15          1           0       -9.609544    4.320853    9.042953
     16          1           0       -8.041569    6.115888    8.585884
     17          1           0       -7.358226    6.040702   10.313927
     18          8           0       -0.969952   -1.765159    7.441976
     19          8           0       -8.450934   -1.322018    7.449723
     20          8           0       -7.089964    1.369734   10.506087
     21          8           0       -2.309377   -4.377573   10.579573
     22         74           0       -3.420091    0.735915    6.534231
     23         74           0       -6.024574   -3.814902    6.612660
     24         74           0       -3.651525    0.923061   11.374776
     25         74           0       -5.759418   -3.870221   11.445949
     26         74           0       -2.482441   -2.524532    6.383973
     27         74           0       -6.936296   -0.556160    6.361058
     28         74           0       -6.806178   -0.250556   11.592033
     29         74           0       -2.596844   -2.693775   11.620668
     30          8           0       -3.209513    1.935649    5.360234
     31          8           0       -6.133986   -5.074045    5.470900
     32          8           0       -2.714316    1.756797   12.527812
     33          8           0       -6.690126   -4.667514   12.629366
     34          8           0       -2.681537   -0.857949    5.570274
     35          8           0       -6.732003   -2.279060    5.609581
     36          8           0       -5.330113    0.586804   12.385441
     37          8           0       -4.065815   -3.527051   12.433306
     38          8           0        0.283060   -0.005078    9.283063
     39          8           0       -9.704452   -3.013900    9.345179
     40          8           0       -6.455188    3.409101    8.674173
     41          8           0       -2.973429   -6.437583    8.738770
     42          8           0       -1.787950    0.798126    7.481325
     43          8           0       -7.639926   -3.888129    7.553409
     44          8           0       -4.547488    2.254519   10.434253
     45          8           0       -4.861376   -5.239461   10.532287
     46          8           0       -1.655148   -3.474705    5.233975
     47          8           0       -7.812307    0.259484    5.163257
     48          8           0       -8.029513   -0.181012   12.774865
     49          8           0       -1.349698   -2.790039   12.780098
     50         74           0       -1.270138   -0.541977    8.826576
     51         74           0       -8.152699   -2.486254    8.870612
     52         74           0       -5.963473    1.838228    9.067311
     53         74           0       -3.453663   -4.861186    9.179213
     54          8           0       -4.242587   -3.073041    6.086843
     55          8           0       -5.171068   -0.051781    6.035802
     56          8           0       -6.167399   -1.989879   11.908739
     57          8           0       -3.214949   -0.957953   11.915158
     58          8           0       -4.399329    1.591339    7.867709
     59          8           0       -5.013242   -4.649750    7.949128
     60          8           0       -2.365947    0.591739   10.061887
     61          8           0       -7.046914   -3.597431   10.122834
     62          8           0       -2.569892   -3.863190    7.870430
     63          8           0       -6.861367    0.788812    7.812508
     64          8           0       -7.847968   -1.159120   10.153248
     65          8           0       -1.573396   -1.844265   10.143714
     66          8           0       -3.330673   -1.134888    8.000143
     67          8           0       -6.090229   -1.937368    8.024758
     68          8           0       -5.184432   -0.151062    9.963654
     69          8           0       -4.213008   -2.856234    9.999600
     70         19           0       -3.247572   -6.066808    5.704043
     71         19           0       -0.200515    0.016222   12.311466
     72         19           0       -9.213918   -2.917958   12.364533
     73         23           0       -4.705580   -1.516462    8.994553
 ---------------------------------------------------------------------

 SCF Done:  E(UwB97XD) =  -7327.72963544     A.U. after   39 cycles

 Alpha  occ. eigenvalues --  -19.27043 -18.99819 -18.98749 -18.98713 -13.36336
 Alpha  occ. eigenvalues --  -13.36335 -13.36256 -10.69266 -10.69264 -10.69260
 Alpha  occ. eigenvalues --  -10.69259 -10.69258 -10.69258 -10.69186 -10.69180
 Alpha  occ. eigenvalues --  -10.69178 -10.33689 -10.33101 -10.31605 -10.30818
 Alpha  occ. eigenvalues --  -10.30780 -10.30749 -10.30421 -10.30313  -9.50560
 Alpha  occ. eigenvalues --   -7.25415  -7.25162  -7.25138  -3.21411  -3.21409
 Alpha  occ. eigenvalues --   -3.21394  -3.21392  -3.21383  -3.21364  -3.21358
 Alpha  occ. eigenvalues --   -3.21356  -3.21331  -3.21170  -3.21128  -3.21069
 Alpha  occ. eigenvalues --   -2.83194  -1.86009  -1.85768  -1.85756  -1.85643
 Alpha  occ. eigenvalues --   -1.85604  -1.85538  -1.85530  -1.85421  -1.85399
 Alpha  occ. eigenvalues --   -1.85373  -1.85355  -1.85348  -1.85321  -1.85220
 Alpha  occ. eigenvalues --   -1.85182  -1.84753  -1.84636  -1.84626  -1.84610
 Alpha  occ. eigenvalues --   -1.84578  -1.84570  -1.84489  -1.84455  -1.84447
 Alpha  occ. eigenvalues --   -1.84433  -1.84420  -1.84408  -1.84266  -1.84259
 Alpha  occ. eigenvalues --   -1.84244  -1.84238  -1.84171  -1.84153  -1.84140
 Alpha  occ. eigenvalues --   -1.84100  -1.84090  -1.83989  -1.83964  -1.83938
 Alpha  occ. eigenvalues --   -1.50055  -1.50055  -1.49979  -1.09465  -1.07780
 Alpha  occ. eigenvalues --   -1.07775  -1.07753  -1.06459  -1.06427  -1.06382
 Alpha  occ. eigenvalues --   -1.05349  -1.04974  -1.04965  -1.04944  -1.04480
 Alpha  occ. eigenvalues --   -1.04426  -1.04394  -1.04363  -1.04336  -1.03418
 Alpha  occ. eigenvalues --   -1.03391  -1.02834  -1.02815  -1.02811  -1.02322
 Alpha  occ. eigenvalues --   -1.02313  -1.02285  -1.02163  -1.02140  -1.02111
 Alpha  occ. eigenvalues --   -1.02048  -1.02033  -1.01872  -1.01835  -1.01809
 Alpha  occ. eigenvalues --   -1.01657  -1.01294  -1.01179  -1.01123  -1.01115
 Alpha  occ. eigenvalues --   -1.01048  -1.00921  -1.00916  -0.96077  -0.89178
 Alpha  occ. eigenvalues --   -0.85532  -0.85530  -0.85465  -0.85349  -0.85348
 Alpha  occ. eigenvalues --   -0.85345  -0.85343  -0.85279  -0.85263  -0.84221
 Alpha  occ. eigenvalues --   -0.82469  -0.79648  -0.72040  -0.69547  -0.65069
 Alpha  occ. eigenvalues --   -0.62580  -0.61985  -0.61927  -0.61912  -0.60556
 Alpha  occ. eigenvalues --   -0.59599  -0.59502  -0.59358  -0.59321  -0.59289
 Alpha  occ. eigenvalues --   -0.59274  -0.59215  -0.59146  -0.59091  -0.58506
 Alpha  occ. eigenvalues --   -0.58447  -0.58260  -0.58011  -0.57229  -0.57187
 Alpha  occ. eigenvalues --   -0.57146  -0.56917  -0.56798  -0.56720  -0.55954
 Alpha  occ. eigenvalues --   -0.55939  -0.55881  -0.54815  -0.54771  -0.54642
 Alpha  occ. eigenvalues --   -0.54395  -0.54342  -0.54240  -0.54091  -0.53063
 Alpha  occ. eigenvalues --   -0.52904  -0.52792  -0.52725  -0.52709  -0.51914
 Alpha  occ. eigenvalues --   -0.51876  -0.51854  -0.51791  -0.51519  -0.51002
 Alpha  occ. eigenvalues --   -0.50926  -0.50744  -0.50721  -0.50683  -0.50578
 Alpha  occ. eigenvalues --   -0.50412  -0.50367  -0.50358  -0.50135  -0.49998
 Alpha  occ. eigenvalues --   -0.49962  -0.49885  -0.49846  -0.49799  -0.49747
 Alpha  occ. eigenvalues --   -0.49711  -0.49602  -0.49397  -0.49286  -0.49204
 Alpha  occ. eigenvalues --   -0.48658  -0.48505  -0.48466  -0.48422  -0.48126
 Alpha  occ. eigenvalues --   -0.48081  -0.47284  -0.46927  -0.46534  -0.46486
 Alpha  occ. eigenvalues --   -0.46451  -0.46185  -0.46085  -0.45941  -0.45552
 Alpha  occ. eigenvalues --   -0.45517  -0.45507  -0.45267  -0.45174  -0.45135
 Alpha  occ. eigenvalues --   -0.45118  -0.45065  -0.44816  -0.44781  -0.44743
 Alpha  occ. eigenvalues --   -0.44323  -0.43326  -0.43272  -0.43170  -0.43126
 Alpha  occ. eigenvalues --   -0.42980  -0.42797  -0.42713  -0.42187  -0.42170
 Alpha  occ. eigenvalues --   -0.42117  -0.42105  -0.41420  -0.41369  -0.41169
 Alpha  occ. eigenvalues --   -0.41126  -0.41073  -0.40869  -0.40842  -0.40812
 Alpha  occ. eigenvalues --   -0.40592  -0.40454  -0.40395  -0.40378  -0.40281
 Alpha  occ. eigenvalues --   -0.40197  -0.40099  -0.40030  -0.39906  -0.39853
 Alpha  occ. eigenvalues --   -0.39728  -0.39657  -0.39443  -0.39414  -0.39270
 Alpha  occ. eigenvalues --   -0.38791  -0.38753  -0.38723  -0.38262  -0.37689
 Alpha  occ. eigenvalues --   -0.37635  -0.33673  -0.33647  -0.33299  -0.31563
 Alpha  occ. eigenvalues --   -0.30586
 Alpha virt. eigenvalues --   -0.08159  -0.06418  -0.06280  -0.04965  -0.04938
 Alpha virt. eigenvalues --   -0.04792  -0.03263  -0.02084  -0.01924  -0.01873
 Alpha virt. eigenvalues --   -0.01554  -0.01335  -0.01282  -0.01234  -0.00790

  Beta  occ. eigenvalues -- -197.16940-129.98937-129.98936-129.98869-101.60496
  Beta  occ. eigenvalues --  -22.48908 -19.28784 -19.28747 -19.28740 -19.28582
  Beta  occ. eigenvalues --  -19.28575 -19.28551 -19.28550 -19.28547 -19.28525
  Beta  occ. eigenvalues --  -19.28520 -19.28323 -19.28315 -19.27405 -19.27396
  Beta  occ. eigenvalues --  -19.27377 -19.27367 -19.27334 -19.27328 -19.27307
  Beta  occ. eigenvalues --  -19.27303 -19.27300 -19.27297 -19.27284 -19.27281
  Beta  occ. eigenvalues --  -19.27279 -19.27264 -19.27241 -19.27234 -19.27226
  Beta  occ. eigenvalues --  -19.27221 -19.27220 -19.27218 -19.27207 -19.27205
  Beta  occ. eigenvalues --  -19.27199 -19.27193 -19.27180 -19.27098 -19.27092
  Beta  occ. eigenvalues --  -19.27044 -18.99454 -18.97275 -18.97204 -13.36336
  Beta  occ. eigenvalues --  -13.36335 -13.36256 -10.69266 -10.69264 -10.69260
  Beta  occ. eigenvalues --  -10.69259 -10.69258 -10.69258 -10.69186 -10.69180
  Beta  occ. eigenvalues --  -10.69178 -10.33850 -10.33524 -10.31504 -10.30944
  Beta  occ. eigenvalues --  -10.30907 -10.30890 -10.30350 -10.30239  -9.50954
  Beta  occ. eigenvalues --   -7.26610  -7.25432  -7.25405  -3.21410  -3.21408
  Beta  occ. eigenvalues --   -3.21394  -3.21387  -3.21379  -3.21360  -3.21353
  Beta  occ. eigenvalues --   -3.21352  -3.21327  -3.21169  -3.21124  -3.21070
  Beta  occ. eigenvalues --   -2.79011  -1.85670  -1.85636  -1.85630  -1.85596
  Beta  occ. eigenvalues --   -1.85423  -1.85396  -1.85371  -1.85353  -1.85342
  Beta  occ. eigenvalues --   -1.85323  -1.85219  -1.85185  -1.84752  -1.84636
  Beta  occ. eigenvalues --   -1.84627  -1.84619  -1.84580  -1.84569  -1.84506
  Beta  occ. eigenvalues --   -1.84484  -1.84453  -1.84443  -1.84431  -1.84417
  Beta  occ. eigenvalues --   -1.84405  -1.84264  -1.84257  -1.84242  -1.84236
  Beta  occ. eigenvalues --   -1.84169  -1.84151  -1.84137  -1.84098  -1.84088
  Beta  occ. eigenvalues --   -1.83988  -1.83964  -1.83939  -1.79799  -1.79645
  Beta  occ. eigenvalues --   -1.50055  -1.50055  -1.49979  -1.09441  -1.07754
  Beta  occ. eigenvalues --   -1.07728  -1.07708  -1.06456  -1.06425  -1.06383
  Beta  occ. eigenvalues --   -1.05298  -1.04974  -1.04965  -1.04945  -1.04413
  Beta  occ. eigenvalues --   -1.04401  -1.04374  -1.04337  -1.04311  -1.03421
  Beta  occ. eigenvalues --   -1.03388  -1.02819  -1.02809  -1.02797  -1.02322
  Beta  occ. eigenvalues --   -1.02312  -1.02281  -1.02162  -1.02139  -1.02100
  Beta  occ. eigenvalues --   -1.02044  -1.02025  -1.01872  -1.01832  -1.01796
  Beta  occ. eigenvalues --   -1.01658  -1.01277  -1.01181  -1.01123  -1.01116
  Beta  occ. eigenvalues --   -1.00998  -1.00902  -1.00866  -0.96342  -0.90106
  Beta  occ. eigenvalues --   -0.85532  -0.85530  -0.85465  -0.85349  -0.85348
  Beta  occ. eigenvalues --   -0.85345  -0.85343  -0.85279  -0.85263  -0.84375
  Beta  occ. eigenvalues --   -0.83519  -0.81779  -0.72424  -0.69677  -0.65394
  Beta  occ. eigenvalues --   -0.62580  -0.61985  -0.61928  -0.61911  -0.60818
  Beta  occ. eigenvalues --   -0.59471  -0.59341  -0.59314  -0.59303  -0.59279
  Beta  occ. eigenvalues --   -0.59262  -0.59202  -0.59148  -0.59077  -0.58298
  Beta  occ. eigenvalues --   -0.58268  -0.58239  -0.57956  -0.57243  -0.57150
  Beta  occ. eigenvalues --   -0.57110  -0.56996  -0.56751  -0.56506  -0.55942
  Beta  occ. eigenvalues --   -0.55928  -0.55887  -0.54780  -0.54714  -0.54626
  Beta  occ. eigenvalues --   -0.54607  -0.54327  -0.54212  -0.54082  -0.53076
  Beta  occ. eigenvalues --   -0.52883  -0.52792  -0.52776  -0.52717  -0.51884
  Beta  occ. eigenvalues --   -0.51849  -0.51844  -0.51503  -0.51486  -0.50952
  Beta  occ. eigenvalues --   -0.50917  -0.50812  -0.50747  -0.50555  -0.50535
  Beta  occ. eigenvalues --   -0.50397  -0.50381  -0.50370  -0.50335  -0.49977
  Beta  occ. eigenvalues --   -0.49955  -0.49851  -0.49839  -0.49790  -0.49757
  Beta  occ. eigenvalues --   -0.49686  -0.49607  -0.49332  -0.49278  -0.49163
  Beta  occ. eigenvalues --   -0.48658  -0.48535  -0.48481  -0.48423  -0.48159
  Beta  occ. eigenvalues --   -0.48061  -0.47908  -0.46460  -0.46365  -0.46352
  Beta  occ. eigenvalues --   -0.46267  -0.46111  -0.45953  -0.45571  -0.45551
  Beta  occ. eigenvalues --   -0.45513  -0.45461  -0.45273  -0.45197  -0.45114
  Beta  occ. eigenvalues --   -0.45073  -0.45024  -0.44816  -0.44808  -0.44736
  Beta  occ. eigenvalues --   -0.44336  -0.43306  -0.43278  -0.43230  -0.43114
  Beta  occ. eigenvalues --   -0.42940  -0.42805  -0.42719  -0.42269  -0.42162
  Beta  occ. eigenvalues --   -0.42159  -0.42098  -0.42004  -0.41419  -0.41330
  Beta  occ. eigenvalues --   -0.41157  -0.41070  -0.40990  -0.40856  -0.40832
  Beta  occ. eigenvalues --   -0.40777  -0.40419  -0.40393  -0.40375  -0.40154
  Beta  occ. eigenvalues --   -0.40096  -0.40075  -0.40046  -0.39944  -0.39869
  Beta  occ. eigenvalues --   -0.39800  -0.39705  -0.39638  -0.39438  -0.39413
  Beta  occ. eigenvalues --   -0.39254  -0.38793  -0.38754  -0.38722  -0.37691
  Beta  occ. eigenvalues --   -0.37628  -0.35865  -0.34269  -0.34153  -0.33771
  Beta  occ. eigenvalues --   -0.29005
  Beta virt. eigenvalues --   -0.06418  -0.06281  -0.04965  -0.04937  -0.04792
  Beta virt. eigenvalues --   -0.02077  -0.01915  -0.01869  -0.01547  -0.01312
  Beta virt. eigenvalues --   -0.01264  -0.01214  -0.01203  -0.00705  -0.00633

 Mulliken charges and spin densities:
               1          2
     1  Cl  -0.424278  -0.486211
     2  C   -0.033286  -0.118144
     3  C    0.015223   0.099811
     4  C   -0.029828  -0.116577
     5  C   -0.030647   0.073037
     6  C    0.004049  -0.130825
     7  C   -0.048372   0.070890
     8  H    0.045667   0.004984
     9  H    0.049187   0.004942
    10  H    0.053395  -0.002652
    11  H    0.054226   0.005790
    12  H    0.052306  -0.002534
    13  C   -0.000195  -0.369694
    14  C    0.015536  -0.048092
    15  H    0.074686   0.015997
    16  H    0.103795   0.002219
    17  H    0.105789   0.001831
    18  O   -0.665784  -0.000705
    19  O   -0.664047  -0.000656
    20  O   -0.659870  -0.002179
    21  O   -0.666473  -0.000674
    22  W    1.717288   0.000317
    23  W    1.658557   0.000453
    24  W    1.669273   0.000054
    25  W    1.680059   0.000159
    26  W    1.669004   0.001833
    27  W    1.718326   0.001473
    28  W    1.624904   0.001925
    29  W    1.681229   0.001882
    30  O   -0.347898  -0.000615
    31  O   -0.394215  -0.000637
    32  O   -0.394268  -0.000669
    33  O   -0.392743  -0.000640
    34  O   -0.667036  -0.000458
    35  O   -0.674566  -0.000225
    36  O   -0.665452  -0.000285
    37  O   -0.668205  -0.000371
    38  O   -0.397989   0.001851
    39  O   -0.399658   0.001894
    40  O   -0.346167  -0.001527
    41  O   -0.397826   0.001829
    42  O   -0.673396  -0.000040
    43  O   -0.665821   0.000071
    44  O   -0.662198   0.000149
    45  O   -0.668349   0.000037
    46  O   -0.397867   0.002077
    47  O   -0.351972   0.002001
    48  O   -0.389826   0.001582
    49  O   -0.397512   0.002098
    50  W    1.667423   0.001936
    51  W    1.671702   0.001777
    52  W    1.680963   0.002491
    53  W    1.676257   0.001831
    54  O   -0.722044   0.000005
    55  O   -0.705630  -0.000050
    56  O   -0.723928   0.000048
    57  O   -0.719903  -0.000013
    58  O   -0.703935  -0.000167
    59  O   -0.724874   0.000025
    60  O   -0.722078   0.000099
    61  O   -0.720870   0.000086
    62  O   -0.721690  -0.000215
    63  O   -0.705130  -0.000024
    64  O   -0.722319  -0.000231
    65  O   -0.725425  -0.000239
    66  O   -0.897265   0.000990
    67  O   -0.897920   0.002819
    68  O   -0.894890   0.002740
    69  O   -0.903399   0.002499
    70  K    0.847108   0.000102
    71  K    0.846628   0.000120
    72  K    0.841261   0.000121
    73  V    1.163203   0.966474
 Sum of Mulliken charges =  -1.00000   0.00000

 Dipole moment (field-independent basis, Debye):
    X=             29.9160    Y=            -13.5721    Z=            -31.3594  Tot=             45.4156
 Quadrupole moment (field-independent basis, Debye-Ang):
   XX=           -797.8573   YY=           -704.4802   ZZ=           -800.4219
   XY=            132.5227   XZ=            197.5491   YZ=            -94.1399

 Normal termination of Gaussian 16 at Sat Jun  1 09:45:38 2024.
