 Gaussian 16, Revision C.01,
 Gaussian 16:  ES64L-G16RevC.01  3-Jul-2019

 ----------------------------------------------------------------------
 # def2svp wb97xd scrf=(smd,solvent=acetonitrile) g09default scf=(xqc,m
 axcycle=64) force guess=read nosymm
 ----------------------------------------------------------------------

 ----------
 Title Card
 ----------
 Symbolic Z-matrix:
 Charge = -1 Multiplicity = 1

                          Input orientation:
 ---------------------------------------------------------------------
 Center     Atomic      Atomic             Coordinates (Angstroms)
 Number     Number       Type             X           Y           Z
 ---------------------------------------------------------------------
      1         17           0       -9.939881    7.746336   10.425738
      2          6           0       -8.312611    4.247315   12.238476
      3          6           0       -9.061731    3.921256   11.094252
      4          6           0      -10.006747    2.887254   11.200046
      5          6           0      -10.187897    2.193071   12.392327
      6          6           0       -9.428602    2.520658   13.516078
      7          6           0       -8.490644    3.551555   13.430879
      8          1           0       -7.577583    5.055177   12.199320
      9          1           0      -10.597832    2.625445   10.318929
     10          1           0      -10.914488    1.379424   12.436295
     11          1           0       -9.557906    1.966889   14.449106
     12          1           0       -7.885149    3.810727   14.303684
     13          6           0       -8.912771    4.614135    9.812682
     14          6           0       -8.079618    5.638555    9.564787
     15          1           0       -9.603556    4.303017    9.022633
     16          1           0       -8.060656    6.123808    8.588432
     17          1           0       -7.387360    6.030364   10.311628
     18          8           0       -1.017452   -1.762936    7.461989
     19          8           0       -8.402588   -1.325340    7.465992
     20          8           0       -7.058476    1.334596   10.490564
     21          8           0       -2.339203   -4.342608   10.561117
     22         74           0       -3.433920    0.748311    6.505643
     23         74           0       -6.009435   -3.824549    6.589136
     24         74           0       -3.636155    0.916254   11.400462
     25         74           0       -5.776790   -3.864826   11.467264
     26         74           0       -2.469573   -2.547209    6.378794
     27         74           0       -6.951694   -0.528223    6.349863
     28         74           0       -6.832793   -0.254256   11.597176
     29         74           0       -2.570235   -2.691038   11.628034
     30          8           0       -3.207513    1.954891    5.347193
     31          8           0       -6.136718   -5.089413    5.460737
     32          8           0       -2.702640    1.769602   12.537219
     33          8           0       -6.702800   -4.679355   12.638819
     34          8           0       -2.698056   -0.864817    5.601591
     35          8           0       -6.716611   -2.267975    5.642066
     36          8           0       -5.323213    0.564897   12.357869
     37          8           0       -4.068670   -3.509241   12.402572
     38          8           0        0.298550   -0.007179    9.285120
     39          8           0       -9.721402   -3.011736    9.345975
     40          8           0       -6.420491    3.416561    8.635461
     41          8           0       -2.961510   -6.449257    8.737071
     42          8           0       -1.817887    0.776368    7.491224
     43          8           0       -7.610131   -3.867250    7.566543
     44          8           0       -4.548124    2.214093   10.420996
     45          8           0       -4.860838   -5.204414   10.518921
     46          8           0       -1.650969   -3.479687    5.217232
     47          8           0       -7.817783    0.272004    5.142715
     48          8           0       -8.038086   -0.186760   12.791306
     49          8           0       -1.340252   -2.790211   12.798728
     50         74           0       -1.261969   -0.517274    8.845774
     51         74           0       -8.163796   -2.509269    8.887286
     52         74           0       -5.944432    1.856153    9.046803
     53         74           0       -3.466436   -4.881718    9.162567
     54          8           0       -4.241306   -3.086683    6.081188
     55          8           0       -5.174494   -0.038466    6.027611
     56          8           0       -6.180872   -1.997613   11.913775
     57          8           0       -3.198317   -0.951174   11.919141
     58          8           0       -4.402206    1.597887    7.856105
     59          8           0       -5.003412   -4.661358    7.939807
     60          8           0       -2.349511    0.592094   10.070368
     61          8           0       -7.061810   -3.599189   10.130182
     62          8           0       -2.575936   -3.864499    7.861849
     63          8           0       -6.854507    0.785982    7.805118
     64          8           0       -7.845824   -1.167405   10.160519
     65          8           0       -1.575027   -1.840228   10.150639
     66          8           0       -3.395466   -1.122745    8.016853
     67          8           0       -6.024570   -1.955916    8.046482
     68          8           0       -5.127450   -0.201153    9.951829
     69          8           0       -4.261675   -2.816557    9.980741
     70         19           0       -3.239256   -6.096151    5.682675
     71         19           0       -0.172166    0.028754   12.332722
     72         19           0       -9.245045   -2.925906   12.389073
     73         23           0       -4.704810   -1.520262    8.996084
 ---------------------------------------------------------------------

 SCF Done:  E(RwB97XD) =  -7327.69917862     A.U. after   14 cycles

 Alpha  occ. eigenvalues -- -197.28243-129.99987-129.99957-129.99864-101.47687
 Alpha  occ. eigenvalues --  -22.61464 -19.33035 -19.32990 -19.32988 -19.32985
 Alpha  occ. eigenvalues --  -19.30623 -19.30620 -19.30618 -19.30615 -19.30584
 Alpha  occ. eigenvalues --  -19.30574 -19.30570 -19.30539 -19.30444 -19.30272
 Alpha  occ. eigenvalues --  -19.30241 -19.30001 -19.29297 -19.29290 -19.29278
 Alpha  occ. eigenvalues --  -19.29273 -19.29269 -19.29262 -19.29240 -19.29208
 Alpha  occ. eigenvalues --  -19.29144 -19.29133 -19.29131 -19.29106 -19.29090
 Alpha  occ. eigenvalues --  -19.29073 -19.29068 -19.29043 -19.29031 -19.29025
 Alpha  occ. eigenvalues --  -19.29012 -19.28993 -19.28956 -19.28895 -19.28874
 Alpha  occ. eigenvalues --  -19.28712 -19.10408 -19.10397 -19.10396 -13.37385
 Alpha  occ. eigenvalues --  -13.37354 -13.37249 -10.70316 -10.70308 -10.70307
 Alpha  occ. eigenvalues --  -10.70285 -10.70277 -10.70277 -10.70182 -10.70173
 Alpha  occ. eigenvalues --  -10.70171 -10.29616 -10.29258 -10.29173 -10.28960
 Alpha  occ. eigenvalues --  -10.28823 -10.28765 -10.27814 -10.27003  -9.38156
 Alpha  occ. eigenvalues --   -7.12980  -7.12936  -7.12929  -3.23257  -3.23244
 Alpha  occ. eigenvalues --   -3.23223  -3.23222  -3.23220  -3.23191  -3.23168
 Alpha  occ. eigenvalues --   -3.23162  -3.23099  -3.22872  -3.22856  -3.22572
 Alpha  occ. eigenvalues --   -2.90964  -1.93416  -1.93393  -1.93378  -1.87641
 Alpha  occ. eigenvalues --   -1.87570  -1.87560  -1.87493  -1.87410  -1.87388
 Alpha  occ. eigenvalues --   -1.87376  -1.87361  -1.87298  -1.87175  -1.87142
 Alpha  occ. eigenvalues --   -1.86926  -1.86581  -1.86461  -1.86451  -1.86440
 Alpha  occ. eigenvalues --   -1.86401  -1.86364  -1.86284  -1.86261  -1.86249
 Alpha  occ. eigenvalues --   -1.86239  -1.86211  -1.86182  -1.86108  -1.86079
 Alpha  occ. eigenvalues --   -1.86065  -1.86038  -1.86008  -1.85942  -1.85918
 Alpha  occ. eigenvalues --   -1.85848  -1.85823  -1.85726  -1.85572  -1.85498
 Alpha  occ. eigenvalues --   -1.51085  -1.51056  -1.50953  -1.12704  -1.10919
 Alpha  occ. eigenvalues --   -1.10800  -1.10789  -1.08787  -1.08498  -1.08474
 Alpha  occ. eigenvalues --   -1.08274  -1.07404  -1.07328  -1.07315  -1.06880
 Alpha  occ. eigenvalues --   -1.06864  -1.06826  -1.06280  -1.06249  -1.05333
 Alpha  occ. eigenvalues --   -1.05320  -1.04947  -1.04936  -1.04898  -1.04196
 Alpha  occ. eigenvalues --   -1.04179  -1.04153  -1.03976  -1.03961  -1.03947
 Alpha  occ. eigenvalues --   -1.03883  -1.03855  -1.03822  -1.03697  -1.03654
 Alpha  occ. eigenvalues --   -1.03548  -1.03503  -1.03217  -1.03195  -1.03118
 Alpha  occ. eigenvalues --   -1.03090  -1.03043  -1.02873  -0.94262  -0.86571
 Alpha  occ. eigenvalues --   -0.86544  -0.86451  -0.86366  -0.86361  -0.86335
 Alpha  occ. eigenvalues --   -0.86331  -0.86314  -0.86237  -0.86222  -0.82674
 Alpha  occ. eigenvalues --   -0.79607  -0.70899  -0.69585  -0.67875  -0.64615
 Alpha  occ. eigenvalues --   -0.63961  -0.63907  -0.63877  -0.62977  -0.62949
 Alpha  occ. eigenvalues --   -0.62897  -0.62861  -0.62435  -0.62413  -0.61662
 Alpha  occ. eigenvalues --   -0.61528  -0.61508  -0.61399  -0.61267  -0.61253
 Alpha  occ. eigenvalues --   -0.61206  -0.60417  -0.59388  -0.59324  -0.59306
 Alpha  occ. eigenvalues --   -0.59240  -0.59230  -0.58556  -0.57998  -0.57965
 Alpha  occ. eigenvalues --   -0.57896  -0.56858  -0.56840  -0.56775  -0.56174
 Alpha  occ. eigenvalues --   -0.56163  -0.56020  -0.55646  -0.54820  -0.54764
 Alpha  occ. eigenvalues --   -0.54742  -0.54420  -0.54204  -0.54093  -0.54045
 Alpha  occ. eigenvalues --   -0.53886  -0.53859  -0.53333  -0.53310  -0.53045
 Alpha  occ. eigenvalues --   -0.53017  -0.52888  -0.52714  -0.52690  -0.52662
 Alpha  occ. eigenvalues --   -0.52643  -0.52506  -0.52472  -0.52312  -0.51441
 Alpha  occ. eigenvalues --   -0.51414  -0.51218  -0.51199  -0.51145  -0.51095
 Alpha  occ. eigenvalues --   -0.51051  -0.51001  -0.50912  -0.50839  -0.50649
 Alpha  occ. eigenvalues --   -0.50633  -0.50595  -0.49917  -0.49890  -0.49217
 Alpha  occ. eigenvalues --   -0.49203  -0.49118  -0.49101  -0.49095  -0.49049
 Alpha  occ. eigenvalues --   -0.48780  -0.47918  -0.47886  -0.47781  -0.47454
 Alpha  occ. eigenvalues --   -0.47299  -0.47232  -0.47169  -0.46948  -0.46864
 Alpha  occ. eigenvalues --   -0.46784  -0.46521  -0.46511  -0.46410  -0.46000
 Alpha  occ. eigenvalues --   -0.45949  -0.45904  -0.45490  -0.45038  -0.44853
 Alpha  occ. eigenvalues --   -0.44816  -0.44086  -0.44044  -0.43922  -0.43396
 Alpha  occ. eigenvalues --   -0.43269  -0.43204  -0.43071  -0.43060  -0.43008
 Alpha  occ. eigenvalues --   -0.42661  -0.42653  -0.42633  -0.42508  -0.42491
 Alpha  occ. eigenvalues --   -0.42434  -0.42428  -0.42379  -0.42267  -0.42246
 Alpha  occ. eigenvalues --   -0.42205  -0.41982  -0.41867  -0.41806  -0.41798
 Alpha  occ. eigenvalues --   -0.41191  -0.41171  -0.41026  -0.41009  -0.40552
 Alpha  occ. eigenvalues --   -0.40518  -0.40497  -0.40235  -0.39382  -0.39380
 Alpha  occ. eigenvalues --   -0.36640  -0.32433  -0.28837  -0.24628  -0.24574
 Alpha  occ. eigenvalues --   -0.22714
 Alpha virt. eigenvalues --   -0.08454  -0.08400  -0.08282  -0.08277  -0.06861
 Alpha virt. eigenvalues --   -0.06838  -0.06753  -0.03741  -0.03663  -0.03607
 Alpha virt. eigenvalues --   -0.03439  -0.03210  -0.03182  -0.03019  -0.02824

 Mulliken charges:
               1
     1  Cl  -0.915640
     2  C   -0.086111
     3  C    0.042048
     4  C   -0.080496
     5  C   -0.033442
     6  C   -0.033768
     7  C   -0.050281
     8  H    0.026106
     9  H    0.027145
    10  H    0.039196
    11  H    0.036446
    12  H    0.038748
    13  C   -0.080739
    14  C    0.036991
    15  H    0.011522
    16  H    0.031610
    17  H    0.032882
    18  O   -0.662306
    19  O   -0.660489
    20  O   -0.654341
    21  O   -0.661811
    22  W    1.736559
    23  W    1.676535
    24  W    1.687916
    25  W    1.697804
    26  W    1.673802
    27  W    1.725801
    28  W    1.619075
    29  W    1.683990
    30  O   -0.322514
    31  O   -0.369593
    32  O   -0.369279
    33  O   -0.368238
    34  O   -0.662979
    35  O   -0.669989
    36  O   -0.660558
    37  O   -0.662533
    38  O   -0.368155
    39  O   -0.368612
    40  O   -0.289619
    41  O   -0.368603
    42  O   -0.669460
    43  O   -0.662006
    44  O   -0.658422
    45  O   -0.664045
    46  O   -0.368442
    47  O   -0.321397
    48  O   -0.357423
    49  O   -0.368530
    50  W    1.670642
    51  W    1.674554
    52  W    1.670746
    53  W    1.681581
    54  O   -0.722747
    55  O   -0.705803
    56  O   -0.724105
    57  O   -0.720316
    58  O   -0.703326
    59  O   -0.725191
    60  O   -0.723614
    61  O   -0.720718
    62  O   -0.722424
    63  O   -0.706817
    64  O   -0.721757
    65  O   -0.725536
    66  O   -0.798908
    67  O   -0.797701
    68  O   -0.796749
    69  O   -0.810520
    70  K    0.860337
    71  K    0.859650
    72  K    0.855165
    73  V    1.199197
 Sum of Mulliken charges =  -1.00000

 Dipole moment (field-independent basis, Debye):
    X=             51.5279    Y=            -48.9983    Z=            -38.6769  Tot=             80.9435
 Quadrupole moment (field-independent basis, Debye-Ang):
   XX=          -1069.8762   YY=           -853.3980   ZZ=           -915.3625
   XY=            436.7261   XZ=            462.0668   YZ=           -453.2591

 Normal termination of Gaussian 16 at Sat Jun  1 17:00:27 2024.
