 Gaussian 16, Revision C.01,
 Gaussian 16:  ES64L-G16RevC.01  3-Jul-2019

 ----------------------------------------------------------------------
 # def2svp wb97xd scrf=(smd,solvent=acetonitrile) g09default scf=(xqc,m
 axcycle=64) force guess=read nosymm
 ----------------------------------------------------------------------

 ----------
 Title Card
 ----------
 Symbolic Z-matrix:
 Charge = -1 Multiplicity = 1

                          Input orientation:
 ---------------------------------------------------------------------
 Center     Atomic      Atomic             Coordinates (Angstroms)
 Number     Number       Type             X           Y           Z
 ---------------------------------------------------------------------
      1         17           0       -9.939881    7.746336   10.425738
      2          6           0       -8.312611    4.247315   12.238476
      3          6           0       -9.061731    3.921256   11.094252
      4          6           0      -10.006747    2.887254   11.200046
      5          6           0      -10.187897    2.193071   12.392327
      6          6           0       -9.428602    2.520658   13.516078
      7          6           0       -8.490644    3.551555   13.430879
      8          1           0       -7.577583    5.055177   12.199320
      9          1           0      -10.597832    2.625445   10.318929
     10          1           0      -10.914488    1.379424   12.436295
     11          1           0       -9.557906    1.966889   14.449106
     12          1           0       -7.885149    3.810727   14.303684
     13          6           0       -8.912771    4.614135    9.812682
     14          6           0       -8.079618    5.638555    9.564787
     15          1           0       -9.603556    4.303017    9.022633
     16          1           0       -8.060656    6.123808    8.588432
     17          1           0       -7.387360    6.030364   10.311628
     18          8           0       -1.017452   -1.762936    7.461989
     19          8           0       -8.402588   -1.325340    7.465992
     20          8           0       -7.058476    1.334596   10.490564
     21          8           0       -2.339203   -4.342608   10.561117
     22         74           0       -3.433920    0.748311    6.505643
     23         74           0       -6.009435   -3.824549    6.589136
     24         74           0       -3.636155    0.916254   11.400462
     25         74           0       -5.776790   -3.864826   11.467264
     26         74           0       -2.469573   -2.547209    6.378794
     27         74           0       -6.951694   -0.528223    6.349863
     28         74           0       -6.832793   -0.254256   11.597176
     29         74           0       -2.570235   -2.691038   11.628034
     30          8           0       -3.207513    1.954891    5.347193
     31          8           0       -6.136718   -5.089413    5.460737
     32          8           0       -2.702640    1.769602   12.537219
     33          8           0       -6.702800   -4.679355   12.638819
     34          8           0       -2.698056   -0.864817    5.601591
     35          8           0       -6.716611   -2.267975    5.642066
     36          8           0       -5.323213    0.564897   12.357869
     37          8           0       -4.068670   -3.509241   12.402572
     38          8           0        0.298550   -0.007179    9.285120
     39          8           0       -9.721402   -3.011736    9.345975
     40          8           0       -6.420491    3.416561    8.635461
     41          8           0       -2.961510   -6.449257    8.737071
     42          8           0       -1.817887    0.776368    7.491224
     43          8           0       -7.610131   -3.867250    7.566543
     44          8           0       -4.548124    2.214093   10.420996
     45          8           0       -4.860838   -5.204414   10.518921
     46          8           0       -1.650969   -3.479687    5.217232
     47          8           0       -7.817783    0.272004    5.142715
     48          8           0       -8.038086   -0.186760   12.791306
     49          8           0       -1.340252   -2.790211   12.798728
     50         74           0       -1.261969   -0.517274    8.845774
     51         74           0       -8.163796   -2.509269    8.887286
     52         74           0       -5.944432    1.856153    9.046803
     53         74           0       -3.466436   -4.881718    9.162567
     54          8           0       -4.241306   -3.086683    6.081188
     55          8           0       -5.174494   -0.038466    6.027611
     56          8           0       -6.180872   -1.997613   11.913775
     57          8           0       -3.198317   -0.951174   11.919141
     58          8           0       -4.402206    1.597887    7.856105
     59          8           0       -5.003412   -4.661358    7.939807
     60          8           0       -2.349511    0.592094   10.070368
     61          8           0       -7.061810   -3.599189   10.130182
     62          8           0       -2.575936   -3.864499    7.861849
     63          8           0       -6.854507    0.785982    7.805118
     64          8           0       -7.845824   -1.167405   10.160519
     65          8           0       -1.575027   -1.840228   10.150639
     66          8           0       -3.395466   -1.122745    8.016853
     67          8           0       -6.024570   -1.955916    8.046482
     68          8           0       -5.127450   -0.201153    9.951829
     69          8           0       -4.261675   -2.816557    9.980741
     70         19           0       -3.239256   -6.096151    5.682675
     71         19           0       -0.172166    0.028754   12.332722
     72         19           0       -9.245045   -2.925906   12.389073
     73         23           0       -4.704810   -1.520262    8.996084
 ---------------------------------------------------------------------

 SCF Done:  E(UwB97XD) =  -7327.69682727     A.U. after   52 cycles

 Alpha  occ. eigenvalues --  -19.24055 -18.92896 -18.91809 -18.91757 -13.36365
 Alpha  occ. eigenvalues --  -13.36357 -13.36301 -10.69293 -10.69288 -10.69287
 Alpha  occ. eigenvalues --  -10.69285 -10.69280 -10.69279 -10.69230 -10.69225
 Alpha  occ. eigenvalues --  -10.69222 -10.32949 -10.32437 -10.31734 -10.30869
 Alpha  occ. eigenvalues --  -10.30848 -10.30774 -10.30477 -10.30366  -9.51924
 Alpha  occ. eigenvalues --   -7.26792  -7.26483  -7.26473  -3.21045  -3.21022
 Alpha  occ. eigenvalues --   -3.21007  -3.20999  -3.20977  -3.20971  -3.20962
 Alpha  occ. eigenvalues --   -3.20960  -3.20920  -3.20838  -3.20800  -3.20778
 Alpha  occ. eigenvalues --   -2.77895  -1.85277  -1.85225  -1.85204  -1.85174
 Alpha  occ. eigenvalues --   -1.85061  -1.85025  -1.85008  -1.84996  -1.84969
 Alpha  occ. eigenvalues --   -1.84959  -1.84931  -1.84902  -1.84359  -1.84249
 Alpha  occ. eigenvalues --   -1.84234  -1.84223  -1.84187  -1.84170  -1.84118
 Alpha  occ. eigenvalues --   -1.84092  -1.84069  -1.84059  -1.84033  -1.84026
 Alpha  occ. eigenvalues --   -1.83912  -1.83882  -1.83875  -1.83864  -1.83837
 Alpha  occ. eigenvalues --   -1.83789  -1.83778  -1.83772  -1.83755  -1.83667
 Alpha  occ. eigenvalues --   -1.83658  -1.83636  -1.81133  -1.80804  -1.80775
 Alpha  occ. eigenvalues --   -1.50081  -1.50072  -1.50018  -1.08595  -1.06975
 Alpha  occ. eigenvalues --   -1.06928  -1.06903  -1.06025  -1.06018  -1.05975
 Alpha  occ. eigenvalues --   -1.04591  -1.04578  -1.04570  -1.03977  -1.03955
 Alpha  occ. eigenvalues --   -1.03417  -1.03284  -1.03235  -1.03219  -1.03065
 Alpha  occ. eigenvalues --   -1.03039  -1.02168  -1.02144  -1.02116  -1.02043
 Alpha  occ. eigenvalues --   -1.02000  -1.01987  -1.01918  -1.01881  -1.01783
 Alpha  occ. eigenvalues --   -1.01757  -1.01740  -1.01629  -1.01551  -1.01542
 Alpha  occ. eigenvalues --   -1.01311  -1.00791  -1.00757  -1.00735  -1.00650
 Alpha  occ. eigenvalues --   -0.99681  -0.99595  -0.99508  -0.96101  -0.89303
 Alpha  occ. eigenvalues --   -0.85546  -0.85534  -0.85492  -0.85371  -0.85368
 Alpha  occ. eigenvalues --   -0.85364  -0.85360  -0.85315  -0.85299  -0.84137
 Alpha  occ. eigenvalues --   -0.82407  -0.80557  -0.71855  -0.69514  -0.65028
 Alpha  occ. eigenvalues --   -0.62371  -0.61730  -0.61695  -0.61645  -0.60607
 Alpha  occ. eigenvalues --   -0.59045  -0.59030  -0.59011  -0.58892  -0.58840
 Alpha  occ. eigenvalues --   -0.58805  -0.58792  -0.58743  -0.58572  -0.57237
 Alpha  occ. eigenvalues --   -0.57188  -0.57151  -0.56939  -0.56770  -0.56423
 Alpha  occ. eigenvalues --   -0.56392  -0.56353  -0.55879  -0.55717  -0.55329
 Alpha  occ. eigenvalues --   -0.55317  -0.55281  -0.54376  -0.54180  -0.54127
 Alpha  occ. eigenvalues --   -0.53971  -0.53591  -0.53544  -0.53518  -0.52721
 Alpha  occ. eigenvalues --   -0.52618  -0.52615  -0.52534  -0.52496  -0.51511
 Alpha  occ. eigenvalues --   -0.51498  -0.51489  -0.51392  -0.51356  -0.50682
 Alpha  occ. eigenvalues --   -0.50569  -0.50468  -0.50443  -0.50340  -0.50302
 Alpha  occ. eigenvalues --   -0.50250  -0.50086  -0.50072  -0.50012  -0.49786
 Alpha  occ. eigenvalues --   -0.49744  -0.49674  -0.49385  -0.49356  -0.49191
 Alpha  occ. eigenvalues --   -0.49146  -0.49114  -0.49042  -0.49012  -0.48926
 Alpha  occ. eigenvalues --   -0.48804  -0.48632  -0.48609  -0.48541  -0.47718
 Alpha  occ. eigenvalues --   -0.47707  -0.47106  -0.46421  -0.45945  -0.45925
 Alpha  occ. eigenvalues --   -0.45766  -0.45715  -0.45670  -0.45560  -0.45182
 Alpha  occ. eigenvalues --   -0.45129  -0.45127  -0.44824  -0.44606  -0.44422
 Alpha  occ. eigenvalues --   -0.44389  -0.44369  -0.44192  -0.44170  -0.44121
 Alpha  occ. eigenvalues --   -0.43255  -0.43046  -0.42451  -0.42417  -0.42372
 Alpha  occ. eigenvalues --   -0.42192  -0.42093  -0.42079  -0.42043  -0.41597
 Alpha  occ. eigenvalues --   -0.41568  -0.41533  -0.41009  -0.40963  -0.40782
 Alpha  occ. eigenvalues --   -0.40736  -0.40687  -0.40392  -0.40358  -0.40333
 Alpha  occ. eigenvalues --   -0.40200  -0.40166  -0.40159  -0.40126  -0.39863
 Alpha  occ. eigenvalues --   -0.39264  -0.39138  -0.39114  -0.39097  -0.38893
 Alpha  occ. eigenvalues --   -0.38827  -0.38782  -0.38732  -0.38530  -0.38515
 Alpha  occ. eigenvalues --   -0.38301  -0.38277  -0.38239  -0.37827  -0.37194
 Alpha  occ. eigenvalues --   -0.37151  -0.34303  -0.34273  -0.33518  -0.30326
 Alpha  occ. eigenvalues --   -0.24715
 Alpha virt. eigenvalues --   -0.11175  -0.06245  -0.06210  -0.04752  -0.04707
 Alpha virt. eigenvalues --   -0.04601  -0.01377  -0.01300  -0.01262  -0.01052
 Alpha virt. eigenvalues --   -0.00851  -0.00840  -0.00766  -0.00106  -0.00001

  Beta  occ. eigenvalues -- -197.09557-129.98961-129.98953-129.98909-101.61915
  Beta  occ. eigenvalues --  -22.42071 -19.28432 -19.28414 -19.28376 -19.28361
  Beta  occ. eigenvalues --  -19.28353 -19.28344 -19.28322 -19.28310 -19.28288
  Beta  occ. eigenvalues --  -19.28282 -19.28186 -19.28146 -19.26966 -19.26894
  Beta  occ. eigenvalues --  -19.26886 -19.26880 -19.26874 -19.26856 -19.26850
  Beta  occ. eigenvalues --  -19.26846 -19.26836 -19.26820 -19.26797 -19.26797
  Beta  occ. eigenvalues --  -19.26793 -19.26787 -19.26786 -19.26778 -19.26776
  Beta  occ. eigenvalues --  -19.26764 -19.26736 -19.26722 -19.26717 -19.26706
  Beta  occ. eigenvalues --  -19.26616 -19.26584 -19.24199 -19.24110 -19.24083
  Beta  occ. eigenvalues --  -19.24029 -18.92554 -18.90378 -18.90276 -13.36365
  Beta  occ. eigenvalues --  -13.36357 -13.36301 -10.69293 -10.69288 -10.69287
  Beta  occ. eigenvalues --  -10.69285 -10.69280 -10.69279 -10.69230 -10.69225
  Beta  occ. eigenvalues --  -10.69222 -10.33223 -10.32616 -10.31681 -10.30961
  Beta  occ. eigenvalues --  -10.30955 -10.30864 -10.30426 -10.30313  -9.52366
  Beta  occ. eigenvalues --   -7.28176  -7.26785  -7.26774  -3.21045  -3.21016
  Beta  occ. eigenvalues --   -3.21006  -3.20998  -3.20971  -3.20965  -3.20956
  Beta  occ. eigenvalues --   -3.20954  -3.20913  -3.20836  -3.20799  -3.20773
  Beta  occ. eigenvalues --   -2.73859  -1.85272  -1.85219  -1.85199  -1.85166
  Beta  occ. eigenvalues --   -1.85058  -1.85019  -1.85003  -1.84991  -1.84960
  Beta  occ. eigenvalues --   -1.84950  -1.84925  -1.84894  -1.84356  -1.84247
  Beta  occ. eigenvalues --   -1.84231  -1.84221  -1.84183  -1.84167  -1.84115
  Beta  occ. eigenvalues --   -1.84089  -1.84066  -1.84056  -1.84030  -1.84022
  Beta  occ. eigenvalues --   -1.83910  -1.83879  -1.83872  -1.83861  -1.83835
  Beta  occ. eigenvalues --   -1.83786  -1.83775  -1.83769  -1.83752  -1.83665
  Beta  occ. eigenvalues --   -1.83655  -1.83633  -1.79812  -1.75191  -1.74972
  Beta  occ. eigenvalues --   -1.50081  -1.50072  -1.50018  -1.08579  -1.06957
  Beta  occ. eigenvalues --   -1.06911  -1.06879  -1.06023  -1.06017  -1.05974
  Beta  occ. eigenvalues --   -1.04592  -1.04577  -1.04570  -1.03978  -1.03955
  Beta  occ. eigenvalues --   -1.03356  -1.03262  -1.03213  -1.03187  -1.03063
  Beta  occ. eigenvalues --   -1.03030  -1.02150  -1.02123  -1.02097  -1.02033
  Beta  occ. eigenvalues --   -1.01996  -1.01975  -1.01918  -1.01872  -1.01779
  Beta  occ. eigenvalues --   -1.01753  -1.01736  -1.01632  -1.01542  -1.01532
  Beta  occ. eigenvalues --   -1.01310  -1.00790  -1.00757  -1.00734  -1.00599
  Beta  occ. eigenvalues --   -0.99537  -0.99420  -0.99365  -0.96313  -0.90044
  Beta  occ. eigenvalues --   -0.85546  -0.85534  -0.85492  -0.85371  -0.85368
  Beta  occ. eigenvalues --   -0.85364  -0.85360  -0.85315  -0.85299  -0.84270
  Beta  occ. eigenvalues --   -0.83975  -0.82696  -0.72137  -0.69626  -0.65287
  Beta  occ. eigenvalues --   -0.62371  -0.61730  -0.61694  -0.61644  -0.60803
  Beta  occ. eigenvalues --   -0.59045  -0.59027  -0.59010  -0.58833  -0.58803
  Beta  occ. eigenvalues --   -0.58782  -0.58756  -0.58713  -0.58572  -0.57216
  Beta  occ. eigenvalues --   -0.57053  -0.57002  -0.56993  -0.56851  -0.56420
  Beta  occ. eigenvalues --   -0.56369  -0.56322  -0.55674  -0.55489  -0.55313
  Beta  occ. eigenvalues --   -0.55293  -0.55276  -0.54558  -0.54174  -0.54120
  Beta  occ. eigenvalues --   -0.53964  -0.53572  -0.53518  -0.53476  -0.52779
  Beta  occ. eigenvalues --   -0.52627  -0.52607  -0.52525  -0.52490  -0.51491
  Beta  occ. eigenvalues --   -0.51483  -0.51473  -0.51383  -0.51312  -0.50893
  Beta  occ. eigenvalues --   -0.50449  -0.50420  -0.50389  -0.50304  -0.50262
  Beta  occ. eigenvalues --   -0.50156  -0.50080  -0.50045  -0.49979  -0.49738
  Beta  occ. eigenvalues --   -0.49694  -0.49649  -0.49380  -0.49346  -0.49194
  Beta  occ. eigenvalues --   -0.49137  -0.49111  -0.49023  -0.49006  -0.48911
  Beta  occ. eigenvalues --   -0.48797  -0.48634  -0.48619  -0.48533  -0.47807
  Beta  occ. eigenvalues --   -0.47679  -0.47575  -0.45952  -0.45794  -0.45759
  Beta  occ. eigenvalues --   -0.45674  -0.45605  -0.45477  -0.45184  -0.45140
  Beta  occ. eigenvalues --   -0.45127  -0.44991  -0.44824  -0.44606  -0.44405
  Beta  occ. eigenvalues --   -0.44381  -0.44352  -0.44156  -0.44129  -0.44097
  Beta  occ. eigenvalues --   -0.43244  -0.43145  -0.42455  -0.42364  -0.42340
  Beta  occ. eigenvalues --   -0.42193  -0.42109  -0.42038  -0.42026  -0.41606
  Beta  occ. eigenvalues --   -0.41581  -0.41507  -0.41379  -0.41011  -0.40917
  Beta  occ. eigenvalues --   -0.40701  -0.40672  -0.40643  -0.40363  -0.40342
  Beta  occ. eigenvalues --   -0.40310  -0.40170  -0.40162  -0.40115  -0.39802
  Beta  occ. eigenvalues --   -0.39532  -0.39263  -0.39117  -0.39037  -0.39012
  Beta  occ. eigenvalues --   -0.38816  -0.38759  -0.38706  -0.38510  -0.38475
  Beta  occ. eigenvalues --   -0.38367  -0.38295  -0.38248  -0.38192  -0.37196
  Beta  occ. eigenvalues --   -0.37154  -0.36996  -0.35203  -0.35172  -0.33773
  Beta  occ. eigenvalues --   -0.30597
  Beta virt. eigenvalues --   -0.06245  -0.06210  -0.04751  -0.04706  -0.04599
  Beta virt. eigenvalues --   -0.01375  -0.01296  -0.01257  -0.01047  -0.00847
  Beta virt. eigenvalues --   -0.00837  -0.00764  -0.00110   0.00006   0.00029

 Mulliken charges and spin densities:
               1          2
     1  Cl  -0.373319  -0.588839
     2  C   -0.039087  -0.085608
     3  C    0.012522   0.055767
     4  C   -0.035863  -0.082861
     5  C   -0.031723   0.053035
     6  C    0.006169  -0.100468
     7  C   -0.048853   0.051725
     8  H    0.046681   0.003648
     9  H    0.048305   0.003562
    10  H    0.053790  -0.001888
    11  H    0.055983   0.004414
    12  H    0.053258  -0.001816
    13  C    0.005437  -0.237810
    14  C   -0.008311  -0.085684
    15  H    0.073577   0.010157
    16  H    0.094667   0.003931
    17  H    0.094171   0.003546
    18  O   -0.670621  -0.000535
    19  O   -0.668870  -0.000465
    20  O   -0.664855  -0.001921
    21  O   -0.670383  -0.000503
    22  W    1.719695   0.000343
    23  W    1.661647   0.000552
    24  W    1.675455   0.000237
    25  W    1.683432   0.000198
    26  W    1.658892   0.002985
    27  W    1.706905   0.002650
    28  W    1.609763   0.003566
    29  W    1.668769   0.003120
    30  O   -0.351908  -0.000540
    31  O   -0.397824  -0.000581
    32  O   -0.397352  -0.000627
    33  O   -0.396706  -0.000577
    34  O   -0.670746  -0.000306
    35  O   -0.676654  -0.000001
    36  O   -0.668863  -0.000111
    37  O   -0.671030  -0.000203
    38  O   -0.397608   0.002134
    39  O   -0.398265   0.002166
    40  O   -0.339707  -0.001844
    41  O   -0.398355   0.002164
    42  O   -0.676402   0.000060
    43  O   -0.670122   0.000179
    44  O   -0.666557   0.000340
    45  O   -0.671956   0.000109
    46  O   -0.398011   0.002319
    47  O   -0.352331   0.002185
    48  O   -0.389742   0.001777
    49  O   -0.398284   0.002405
    50  W    1.655435   0.003090
    51  W    1.659340   0.002966
    52  W    1.669449   0.004061
    53  W    1.665978   0.002953
    54  O   -0.720193   0.000159
    55  O   -0.703344   0.000039
    56  O   -0.720034   0.000228
    57  O   -0.717822   0.000116
    58  O   -0.700422  -0.000040
    59  O   -0.721887   0.000189
    60  O   -0.720530   0.000261
    61  O   -0.717807   0.000259
    62  O   -0.720670  -0.000168
    63  O   -0.704705   0.000023
    64  O   -0.720829  -0.000185
    65  O   -0.723375  -0.000195
    66  O   -0.880238   0.005778
    67  O   -0.879836   0.008186
    68  O   -0.878937   0.008026
    69  O   -0.888272   0.007318
    70  K    0.846254   0.000235
    71  K    0.845739   0.000263
    72  K    0.840760   0.000290
    73  V    1.207136   0.930066
 Sum of Mulliken charges =  -1.00000   0.00000

 Dipole moment (field-independent basis, Debye):
    X=             29.3937    Y=            -13.2839    Z=            -31.1240  Tot=             44.8236
 Quadrupole moment (field-independent basis, Debye-Ang):
   XX=           -783.8961   YY=           -699.2305   ZZ=           -791.2869
   XY=            129.0697   XZ=            190.9769   YZ=            -90.3432

 Normal termination of Gaussian 16 at Sat Jun  1 16:48:18 2024.
