 Gaussian 16, Revision C.01,
 Gaussian 16:  ES64L-G16RevC.01  3-Jul-2019

 ----------------------------------------------------------------------
 # def2svp wb97xd scrf=(smd,solvent=acetonitrile) g09default scf=(xqc,m
 axcycle=64) force guess=read nosymm
 ----------------------------------------------------------------------

 ----------
 Title Card
 ----------
 Symbolic Z-matrix:
 Charge = -1 Multiplicity = 1

                          Input orientation:
 ---------------------------------------------------------------------
 Center     Atomic      Atomic             Coordinates (Angstroms)
 Number     Number       Type             X           Y           Z
 ---------------------------------------------------------------------
      1         17           0       -9.953435    7.784271   10.435895
      2          6           0       -8.310273    4.245389   12.237680
      3          6           0       -9.060661    3.917635   11.092435
      4          6           0      -10.005637    2.883738   11.200617
      5          6           0      -10.188712    2.192626   12.392951
      6          6           0       -9.429478    2.520880   13.516882
      7          6           0       -8.490630    3.551421   13.431629
      8          1           0       -7.577826    5.053660   12.199337
      9          1           0      -10.598939    2.622872   10.319633
     10          1           0      -10.916682    1.379222   12.438217
     11          1           0       -9.557461    1.966946   14.449874
     12          1           0       -7.886262    3.812220   14.303986
     13          6           0       -8.915766    4.614802    9.813562
     14          6           0       -8.083469    5.641334    9.563435
     15          1           0       -9.599113    4.295194    9.019336
     16          1           0       -8.061512    6.121864    8.585211
     17          1           0       -7.386951    6.025845   10.311173
     18          8           0       -1.016413   -1.764539    7.463433
     19          8           0       -8.403761   -1.323852    7.467493
     20          8           0       -7.059765    1.335722   10.488302
     21          8           0       -2.337050   -4.342879   10.559628
     22         74           0       -3.432861    0.745705    6.503702
     23         74           0       -6.009266   -3.823036    6.588361
     24         74           0       -3.636381    0.915111   11.402395
     25         74           0       -5.777113   -3.865471   11.468883
     26         74           0       -2.470326   -2.545738    6.381238
     27         74           0       -6.950704   -0.529963    6.351492
     28         74           0       -6.831938   -0.253751   11.595596
     29         74           0       -2.569950   -2.691837   11.627919
     30          8           0       -3.206878    1.953285    5.346425
     31          8           0       -6.137305   -5.087319    5.460557
     32          8           0       -2.704666    1.768894   12.537029
     33          8           0       -6.700576   -4.678641   12.637847
     34          8           0       -2.699109   -0.865527    5.596943
     35          8           0       -6.716163   -2.267581    5.636982
     36          8           0       -5.323402    0.563407   12.362495
     37          8           0       -4.068604   -3.508057   12.406738
     38          8           0        0.297366   -0.007467    9.283405
     39          8           0       -9.720451   -3.011262    9.343662
     40          8           0       -6.412898    3.414565    8.631782
     41          8           0       -2.961989   -6.447036    8.739027
     42          8           0       -1.817033    0.780762    7.490474
     43          8           0       -7.610314   -3.871828    7.566111
     44          8           0       -4.543808    2.215756   10.421399
     45          8           0       -4.863987   -5.208145   10.519170
     46          8           0       -1.650211   -3.477980    5.217870
     47          8           0       -7.818389    0.271476    5.143712
     48          8           0       -8.036670   -0.185894   12.789368
     49          8           0       -1.341928   -2.791681   12.797059
     50         74           0       -1.265740   -0.516247    8.845137
     51         74           0       -8.159825   -2.509873    8.886098
     52         74           0       -5.939992    1.854936    9.045793
     53         74           0       -3.468435   -4.881683    9.162334
     54          8           0       -4.240039   -3.090410    6.077499
     55          8           0       -5.176460   -0.034100    6.023118
     56          8           0       -6.184803   -1.999106   11.917882
     57          8           0       -3.193528   -0.949933   11.922941
     58          8           0       -4.401192    1.600171    7.852321
     59          8           0       -5.002718   -4.666707    7.936135
     60          8           0       -2.345228    0.594922   10.073938
     61          8           0       -7.065726   -3.601942   10.133872
     62          8           0       -2.576863   -3.866974    7.859831
     63          8           0       -6.852937    0.787731    7.803688
     64          8           0       -7.847142   -1.169535   10.162333
     65          8           0       -1.573425   -1.838348   10.152514
     66          8           0       -3.392958   -1.123289    8.015830
     67          8           0       -6.027271   -1.956299    8.045923
     68          8           0       -5.129109   -0.199655    9.953777
     69          8           0       -4.259806   -2.819088    9.982052
     70         19           0       -3.237813   -6.101978    5.678415
     71         19           0       -0.166778    0.031250   12.336909
     72         19           0       -9.251026   -2.927243   12.394066
     73         23           0       -4.704613   -1.520132    8.995124
 ---------------------------------------------------------------------

 SCF Done:  E(RwB97XD) =  -7327.69925309     A.U. after   17 cycles

 Alpha  occ. eigenvalues -- -197.28629-130.00003-129.99971-129.99876-101.47651
 Alpha  occ. eigenvalues --  -22.61823 -19.33260 -19.33248 -19.33219 -19.33203
 Alpha  occ. eigenvalues --  -19.30668 -19.30664 -19.30661 -19.30646 -19.30605
 Alpha  occ. eigenvalues --  -19.30589 -19.30585 -19.30542 -19.30459 -19.30288
 Alpha  occ. eigenvalues --  -19.30275 -19.30038 -19.29322 -19.29295 -19.29283
 Alpha  occ. eigenvalues --  -19.29281 -19.29269 -19.29267 -19.29256 -19.29210
 Alpha  occ. eigenvalues --  -19.29162 -19.29161 -19.29131 -19.29099 -19.29091
 Alpha  occ. eigenvalues --  -19.29082 -19.29075 -19.29068 -19.29067 -19.29061
 Alpha  occ. eigenvalues --  -19.29022 -19.29018 -19.28974 -19.28932 -19.28917
 Alpha  occ. eigenvalues --  -19.28701 -19.10770 -19.10760 -19.10758 -13.37402
 Alpha  occ. eigenvalues --  -13.37369 -13.37262 -10.70333 -10.70325 -10.70325
 Alpha  occ. eigenvalues --  -10.70300 -10.70292 -10.70291 -10.70194 -10.70186
 Alpha  occ. eigenvalues --  -10.70184 -10.29680 -10.29286 -10.29199 -10.29000
 Alpha  occ. eigenvalues --  -10.28875 -10.28807 -10.27893 -10.27158  -9.38116
 Alpha  occ. eigenvalues --   -7.12940  -7.12897  -7.12892  -3.23265  -3.23253
 Alpha  occ. eigenvalues --   -3.23248  -3.23246  -3.23230  -3.23225  -3.23183
 Alpha  occ. eigenvalues --   -3.23172  -3.23105  -3.22902  -3.22894  -3.22593
 Alpha  occ. eigenvalues --   -2.91255  -1.93693  -1.93664  -1.93640  -1.87685
 Alpha  occ. eigenvalues --   -1.87595  -1.87582  -1.87529  -1.87449  -1.87440
 Alpha  occ. eigenvalues --   -1.87388  -1.87373  -1.87325  -1.87201  -1.87167
 Alpha  occ. eigenvalues --   -1.86965  -1.86591  -1.86472  -1.86464  -1.86443
 Alpha  occ. eigenvalues --   -1.86418  -1.86369  -1.86304  -1.86283  -1.86270
 Alpha  occ. eigenvalues --   -1.86254  -1.86218  -1.86184  -1.86112  -1.86087
 Alpha  occ. eigenvalues --   -1.86078  -1.86056  -1.86006  -1.85953  -1.85941
 Alpha  occ. eigenvalues --   -1.85880  -1.85848  -1.85757  -1.85589  -1.85513
 Alpha  occ. eigenvalues --   -1.51100  -1.51068  -1.50962  -1.12833  -1.11039
 Alpha  occ. eigenvalues --   -1.10956  -1.10937  -1.08864  -1.08518  -1.08481
 Alpha  occ. eigenvalues --   -1.08309  -1.07460  -1.07414  -1.07379  -1.06897
 Alpha  occ. eigenvalues --   -1.06879  -1.06838  -1.06294  -1.06260  -1.05338
 Alpha  occ. eigenvalues --   -1.05320  -1.04952  -1.04948  -1.04908  -1.04206
 Alpha  occ. eigenvalues --   -1.04197  -1.04156  -1.04006  -1.04005  -1.03977
 Alpha  occ. eigenvalues --   -1.03895  -1.03855  -1.03850  -1.03703  -1.03658
 Alpha  occ. eigenvalues --   -1.03597  -1.03526  -1.03237  -1.03202  -1.03126
 Alpha  occ. eigenvalues --   -1.03104  -1.03050  -1.02896  -0.94283  -0.86580
 Alpha  occ. eigenvalues --   -0.86551  -0.86454  -0.86380  -0.86376  -0.86361
 Alpha  occ. eigenvalues --   -0.86348  -0.86342  -0.86247  -0.86232  -0.82709
 Alpha  occ. eigenvalues --   -0.79635  -0.70850  -0.69644  -0.67897  -0.64615
 Alpha  occ. eigenvalues --   -0.63972  -0.63912  -0.63885  -0.63093  -0.63074
 Alpha  occ. eigenvalues --   -0.63012  -0.62903  -0.62530  -0.62498  -0.61774
 Alpha  occ. eigenvalues --   -0.61557  -0.61538  -0.61438  -0.61257  -0.61253
 Alpha  occ. eigenvalues --   -0.61196  -0.60423  -0.59431  -0.59380  -0.59369
 Alpha  occ. eigenvalues --   -0.59307  -0.59291  -0.58581  -0.58003  -0.57969
 Alpha  occ. eigenvalues --   -0.57902  -0.56931  -0.56916  -0.56857  -0.56223
 Alpha  occ. eigenvalues --   -0.56207  -0.56054  -0.55683  -0.54850  -0.54794
 Alpha  occ. eigenvalues --   -0.54759  -0.54471  -0.54221  -0.54100  -0.54045
 Alpha  occ. eigenvalues --   -0.53934  -0.53918  -0.53301  -0.53271  -0.53069
 Alpha  occ. eigenvalues --   -0.53022  -0.52904  -0.52715  -0.52687  -0.52656
 Alpha  occ. eigenvalues --   -0.52643  -0.52501  -0.52460  -0.52344  -0.51509
 Alpha  occ. eigenvalues --   -0.51472  -0.51287  -0.51277  -0.51220  -0.51165
 Alpha  occ. eigenvalues --   -0.51127  -0.51068  -0.50937  -0.50800  -0.50628
 Alpha  occ. eigenvalues --   -0.50603  -0.50589  -0.49927  -0.49896  -0.49247
 Alpha  occ. eigenvalues --   -0.49214  -0.49157  -0.49144  -0.49130  -0.49066
 Alpha  occ. eigenvalues --   -0.48835  -0.47973  -0.47962  -0.47832  -0.47501
 Alpha  occ. eigenvalues --   -0.47330  -0.47243  -0.47187  -0.46966  -0.46898
 Alpha  occ. eigenvalues --   -0.46812  -0.46566  -0.46547  -0.46432  -0.46076
 Alpha  occ. eigenvalues --   -0.46029  -0.45978  -0.45526  -0.45059  -0.44893
 Alpha  occ. eigenvalues --   -0.44845  -0.44134  -0.44082  -0.43956  -0.43433
 Alpha  occ. eigenvalues --   -0.43279  -0.43218  -0.43089  -0.43072  -0.43031
 Alpha  occ. eigenvalues --   -0.42700  -0.42683  -0.42650  -0.42537  -0.42529
 Alpha  occ. eigenvalues --   -0.42464  -0.42440  -0.42407  -0.42276  -0.42266
 Alpha  occ. eigenvalues --   -0.42228  -0.41996  -0.41875  -0.41824  -0.41812
 Alpha  occ. eigenvalues --   -0.41197  -0.41172  -0.41083  -0.41029  -0.40566
 Alpha  occ. eigenvalues --   -0.40531  -0.40519  -0.40263  -0.39402  -0.39389
 Alpha  occ. eigenvalues --   -0.36685  -0.32462  -0.28803  -0.24588  -0.24540
 Alpha  occ. eigenvalues --   -0.22815
 Alpha virt. eigenvalues --   -0.08769  -0.08669  -0.08331  -0.08312  -0.06886
 Alpha virt. eigenvalues --   -0.06855  -0.06769  -0.03882  -0.03784  -0.03730
 Alpha virt. eigenvalues --   -0.03548  -0.03297  -0.03254  -0.03083  -0.02960

 Mulliken charges:
               1
     1  Cl  -0.919724
     2  C   -0.084223
     3  C    0.041711
     4  C   -0.079683
     5  C   -0.033508
     6  C   -0.033402
     7  C   -0.050189
     8  H    0.026136
     9  H    0.027853
    10  H    0.039877
    11  H    0.036832
    12  H    0.038837
    13  C   -0.083103
    14  C    0.033014
    15  H    0.013430
    16  H    0.033432
    17  H    0.034160
    18  O   -0.662537
    19  O   -0.660563
    20  O   -0.655101
    21  O   -0.662635
    22  W    1.736550
    23  W    1.676306
    24  W    1.687409
    25  W    1.696834
    26  W    1.675089
    27  W    1.725946
    28  W    1.619712
    29  W    1.684192
    30  O   -0.321705
    31  O   -0.368222
    32  O   -0.367178
    33  O   -0.364948
    34  O   -0.663238
    35  O   -0.670098
    36  O   -0.660982
    37  O   -0.663174
    38  O   -0.368909
    39  O   -0.369784
    40  O   -0.289226
    41  O   -0.366668
    42  O   -0.669621
    43  O   -0.662142
    44  O   -0.658914
    45  O   -0.664871
    46  O   -0.369090
    47  O   -0.322321
    48  O   -0.356709
    49  O   -0.366353
    50  W    1.671685
    51  W    1.675909
    52  W    1.671479
    53  W    1.682172
    54  O   -0.723129
    55  O   -0.705817
    56  O   -0.724646
    57  O   -0.721028
    58  O   -0.703744
    59  O   -0.725684
    60  O   -0.724177
    61  O   -0.721178
    62  O   -0.722752
    63  O   -0.706898
    64  O   -0.721803
    65  O   -0.725662
    66  O   -0.800099
    67  O   -0.799043
    68  O   -0.796842
    69  O   -0.809450
    70  K    0.861180
    71  K    0.860509
    72  K    0.856065
    73  V    1.194448
 Sum of Mulliken charges =  -1.00000

 Dipole moment (field-independent basis, Debye):
    X=             51.6720    Y=            -49.3890    Z=            -38.5834  Tot=             81.2278
 Quadrupole moment (field-independent basis, Debye-Ang):
   XX=          -1072.1037   YY=           -856.5453   ZZ=           -913.1805
   XY=            440.6069   XZ=            463.0811   YZ=           -457.4004

 Normal termination of Gaussian 16 at Sat Jun  1 17:41:30 2024.
