 Gaussian 16, Revision C.01,
 Gaussian 16:  ES64L-G16RevC.01  3-Jul-2019

 ----------------------------------------------------------------------
 # def2svp wb97xd scrf=(smd,solvent=acetonitrile) g09default scf=(xqc,m
 axcycle=64) force guess=read nosymm
 ----------------------------------------------------------------------

 ----------
 Title Card
 ----------
 Symbolic Z-matrix:
 Charge = -1 Multiplicity = 1

                          Input orientation:
 ---------------------------------------------------------------------
 Center     Atomic      Atomic             Coordinates (Angstroms)
 Number     Number       Type             X           Y           Z
 ---------------------------------------------------------------------
      1         17           0       -9.953435    7.784271   10.435895
      2          6           0       -8.310273    4.245389   12.237680
      3          6           0       -9.060661    3.917635   11.092435
      4          6           0      -10.005637    2.883738   11.200617
      5          6           0      -10.188712    2.192626   12.392951
      6          6           0       -9.429478    2.520880   13.516882
      7          6           0       -8.490630    3.551421   13.431629
      8          1           0       -7.577826    5.053660   12.199337
      9          1           0      -10.598939    2.622872   10.319633
     10          1           0      -10.916682    1.379222   12.438217
     11          1           0       -9.557461    1.966946   14.449874
     12          1           0       -7.886262    3.812220   14.303986
     13          6           0       -8.915766    4.614802    9.813562
     14          6           0       -8.083469    5.641334    9.563435
     15          1           0       -9.599113    4.295194    9.019336
     16          1           0       -8.061512    6.121864    8.585211
     17          1           0       -7.386951    6.025845   10.311173
     18          8           0       -1.016413   -1.764539    7.463433
     19          8           0       -8.403761   -1.323852    7.467493
     20          8           0       -7.059765    1.335722   10.488302
     21          8           0       -2.337050   -4.342879   10.559628
     22         74           0       -3.432861    0.745705    6.503702
     23         74           0       -6.009266   -3.823036    6.588361
     24         74           0       -3.636381    0.915111   11.402395
     25         74           0       -5.777113   -3.865471   11.468883
     26         74           0       -2.470326   -2.545738    6.381238
     27         74           0       -6.950704   -0.529963    6.351492
     28         74           0       -6.831938   -0.253751   11.595596
     29         74           0       -2.569950   -2.691837   11.627919
     30          8           0       -3.206878    1.953285    5.346425
     31          8           0       -6.137305   -5.087319    5.460557
     32          8           0       -2.704666    1.768894   12.537029
     33          8           0       -6.700576   -4.678641   12.637847
     34          8           0       -2.699109   -0.865527    5.596943
     35          8           0       -6.716163   -2.267581    5.636982
     36          8           0       -5.323402    0.563407   12.362495
     37          8           0       -4.068604   -3.508057   12.406738
     38          8           0        0.297366   -0.007467    9.283405
     39          8           0       -9.720451   -3.011262    9.343662
     40          8           0       -6.412898    3.414565    8.631782
     41          8           0       -2.961989   -6.447036    8.739027
     42          8           0       -1.817033    0.780762    7.490474
     43          8           0       -7.610314   -3.871828    7.566111
     44          8           0       -4.543808    2.215756   10.421399
     45          8           0       -4.863987   -5.208145   10.519170
     46          8           0       -1.650211   -3.477980    5.217870
     47          8           0       -7.818389    0.271476    5.143712
     48          8           0       -8.036670   -0.185894   12.789368
     49          8           0       -1.341928   -2.791681   12.797059
     50         74           0       -1.265740   -0.516247    8.845137
     51         74           0       -8.159825   -2.509873    8.886098
     52         74           0       -5.939992    1.854936    9.045793
     53         74           0       -3.468435   -4.881683    9.162334
     54          8           0       -4.240039   -3.090410    6.077499
     55          8           0       -5.176460   -0.034100    6.023118
     56          8           0       -6.184803   -1.999106   11.917882
     57          8           0       -3.193528   -0.949933   11.922941
     58          8           0       -4.401192    1.600171    7.852321
     59          8           0       -5.002718   -4.666707    7.936135
     60          8           0       -2.345228    0.594922   10.073938
     61          8           0       -7.065726   -3.601942   10.133872
     62          8           0       -2.576863   -3.866974    7.859831
     63          8           0       -6.852937    0.787731    7.803688
     64          8           0       -7.847142   -1.169535   10.162333
     65          8           0       -1.573425   -1.838348   10.152514
     66          8           0       -3.392958   -1.123289    8.015830
     67          8           0       -6.027271   -1.956299    8.045923
     68          8           0       -5.129109   -0.199655    9.953777
     69          8           0       -4.259806   -2.819088    9.982052
     70         19           0       -3.237813   -6.101978    5.678415
     71         19           0       -0.166778    0.031250   12.336909
     72         19           0       -9.251026   -2.927243   12.394066
     73         23           0       -4.704613   -1.520132    8.995124
 ---------------------------------------------------------------------

 SCF Done:  E(UwB97XD) =  -7327.69878776     A.U. after   39 cycles

 Alpha  occ. eigenvalues --  -19.24325 -18.93300 -18.92216 -18.92161 -13.36382
 Alpha  occ. eigenvalues --  -13.36377 -13.36316 -10.69310 -10.69305 -10.69305
 Alpha  occ. eigenvalues --  -10.69305 -10.69300 -10.69300 -10.69245 -10.69240
 Alpha  occ. eigenvalues --  -10.69238 -10.32948 -10.32413 -10.31765 -10.30893
 Alpha  occ. eigenvalues --  -10.30869 -10.30785 -10.30489 -10.30377  -9.52018
 Alpha  occ. eigenvalues --   -7.26890  -7.26574  -7.26565  -3.21052  -3.21032
 Alpha  occ. eigenvalues --   -3.21022  -3.21008  -3.20999  -3.20974  -3.20972
 Alpha  occ. eigenvalues --   -3.20965  -3.20958  -3.20840  -3.20835  -3.20805
 Alpha  occ. eigenvalues --   -2.78219  -1.85304  -1.85269  -1.85234  -1.85192
 Alpha  occ. eigenvalues --   -1.85091  -1.85050  -1.85041  -1.85013  -1.85000
 Alpha  occ. eigenvalues --   -1.84980  -1.84955  -1.84908  -1.84365  -1.84255
 Alpha  occ. eigenvalues --   -1.84239  -1.84229  -1.84193  -1.84185  -1.84124
 Alpha  occ. eigenvalues --   -1.84104  -1.84080  -1.84077  -1.84044  -1.84037
 Alpha  occ. eigenvalues --   -1.83919  -1.83897  -1.83873  -1.83866  -1.83849
 Alpha  occ. eigenvalues --   -1.83804  -1.83790  -1.83778  -1.83770  -1.83679
 Alpha  occ. eigenvalues --   -1.83675  -1.83660  -1.81434  -1.81105  -1.81074
 Alpha  occ. eigenvalues --   -1.50095  -1.50089  -1.50030  -1.08614  -1.06984
 Alpha  occ. eigenvalues --   -1.06956  -1.06914  -1.06036  -1.06020  -1.05994
 Alpha  occ. eigenvalues --   -1.04601  -1.04582  -1.04579  -1.03985  -1.03964
 Alpha  occ. eigenvalues --   -1.03538  -1.03334  -1.03272  -1.03267  -1.03074
 Alpha  occ. eigenvalues --   -1.03041  -1.02206  -1.02183  -1.02142  -1.02059
 Alpha  occ. eigenvalues --   -1.02024  -1.01998  -1.01941  -1.01904  -1.01796
 Alpha  occ. eigenvalues --   -1.01768  -1.01743  -1.01646  -1.01567  -1.01544
 Alpha  occ. eigenvalues --   -1.01305  -1.00793  -1.00760  -1.00742  -1.00712
 Alpha  occ. eigenvalues --   -0.99803  -0.99745  -0.99684  -0.96091  -0.89278
 Alpha  occ. eigenvalues --   -0.85554  -0.85545  -0.85498  -0.85387  -0.85382
 Alpha  occ. eigenvalues --   -0.85381  -0.85378  -0.85328  -0.85311  -0.84150
 Alpha  occ. eigenvalues --   -0.82366  -0.80618  -0.71869  -0.69506  -0.65022
 Alpha  occ. eigenvalues --   -0.62366  -0.61738  -0.61694  -0.61652  -0.60590
 Alpha  occ. eigenvalues --   -0.59028  -0.59016  -0.59004  -0.58903  -0.58848
 Alpha  occ. eigenvalues --   -0.58799  -0.58784  -0.58735  -0.58580  -0.57288
 Alpha  occ. eigenvalues --   -0.57252  -0.57217  -0.56981  -0.56776  -0.56467
 Alpha  occ. eigenvalues --   -0.56439  -0.56396  -0.55957  -0.55790  -0.55352
 Alpha  occ. eigenvalues --   -0.55344  -0.55308  -0.54362  -0.54215  -0.54163
 Alpha  occ. eigenvalues --   -0.53998  -0.53628  -0.53579  -0.53552  -0.52729
 Alpha  occ. eigenvalues --   -0.52632  -0.52630  -0.52545  -0.52502  -0.51510
 Alpha  occ. eigenvalues --   -0.51493  -0.51491  -0.51371  -0.51331  -0.50680
 Alpha  occ. eigenvalues --   -0.50600  -0.50497  -0.50461  -0.50373  -0.50326
 Alpha  occ. eigenvalues --   -0.50256  -0.50082  -0.50065  -0.50007  -0.49782
 Alpha  occ. eigenvalues --   -0.49728  -0.49672  -0.49444  -0.49405  -0.49252
 Alpha  occ. eigenvalues --   -0.49213  -0.49181  -0.49094  -0.49061  -0.48976
 Alpha  occ. eigenvalues --   -0.48772  -0.48620  -0.48584  -0.48509  -0.47727
 Alpha  occ. eigenvalues --   -0.47712  -0.47112  -0.46464  -0.45993  -0.45976
 Alpha  occ. eigenvalues --   -0.45782  -0.45764  -0.45725  -0.45597  -0.45198
 Alpha  occ. eigenvalues --   -0.45132  -0.45127  -0.44835  -0.44625  -0.44463
 Alpha  occ. eigenvalues --   -0.44432  -0.44418  -0.44237  -0.44224  -0.44188
 Alpha  occ. eigenvalues --   -0.43316  -0.43077  -0.42488  -0.42459  -0.42425
 Alpha  occ. eigenvalues --   -0.42246  -0.42141  -0.42137  -0.42035  -0.41615
 Alpha  occ. eigenvalues --   -0.41593  -0.41558  -0.41027  -0.40977  -0.40802
 Alpha  occ. eigenvalues --   -0.40751  -0.40719  -0.40406  -0.40382  -0.40358
 Alpha  occ. eigenvalues --   -0.40205  -0.40175  -0.40161  -0.40151  -0.39876
 Alpha  occ. eigenvalues --   -0.39301  -0.39193  -0.39157  -0.39128  -0.38933
 Alpha  occ. eigenvalues --   -0.38871  -0.38856  -0.38790  -0.38634  -0.38618
 Alpha  occ. eigenvalues --   -0.38327  -0.38299  -0.38263  -0.37829  -0.37197
 Alpha  occ. eigenvalues --   -0.37168  -0.34359  -0.34332  -0.33536  -0.30206
 Alpha  occ. eigenvalues --   -0.25073
 Alpha virt. eigenvalues --   -0.11376  -0.06246  -0.06228  -0.04770  -0.04722
 Alpha virt. eigenvalues --   -0.04612  -0.01412  -0.01320  -0.01280  -0.01092
 Alpha virt. eigenvalues --   -0.00891  -0.00866  -0.00794  -0.00132  -0.00040

  Beta  occ. eigenvalues -- -197.09984-129.98978-129.98972-129.98923-101.62011
  Beta  occ. eigenvalues --  -22.42471 -19.28478 -19.28459 -19.28445 -19.28367
  Beta  occ. eigenvalues --  -19.28362 -19.28347 -19.28336 -19.28309 -19.28297
  Beta  occ. eigenvalues --  -19.28284 -19.28228 -19.28142 -19.26964 -19.26896
  Beta  occ. eigenvalues --  -19.26883 -19.26880 -19.26880 -19.26876 -19.26853
  Beta  occ. eigenvalues --  -19.26848 -19.26843 -19.26840 -19.26822 -19.26818
  Beta  occ. eigenvalues --  -19.26817 -19.26805 -19.26800 -19.26792 -19.26770
  Beta  occ. eigenvalues --  -19.26760 -19.26739 -19.26717 -19.26711 -19.26694
  Beta  occ. eigenvalues --  -19.26650 -19.26623 -19.24360 -19.24356 -19.24310
  Beta  occ. eigenvalues --  -19.24299 -18.92957 -18.90783 -18.90677 -13.36382
  Beta  occ. eigenvalues --  -13.36377 -13.36316 -10.69310 -10.69305 -10.69305
  Beta  occ. eigenvalues --  -10.69305 -10.69300 -10.69300 -10.69245 -10.69240
  Beta  occ. eigenvalues --  -10.69238 -10.33212 -10.32592 -10.31715 -10.30984
  Beta  occ. eigenvalues --  -10.30976 -10.30874 -10.30438 -10.30324  -9.52463
  Beta  occ. eigenvalues --   -7.28282  -7.26878  -7.26868  -3.21052  -3.21032
  Beta  occ. eigenvalues --   -3.21016  -3.21007  -3.20993  -3.20968  -3.20966
  Beta  occ. eigenvalues --   -3.20958  -3.20951  -3.20838  -3.20835  -3.20800
  Beta  occ. eigenvalues --   -2.74175  -1.85300  -1.85263  -1.85230  -1.85184
  Beta  occ. eigenvalues --   -1.85087  -1.85045  -1.85035  -1.85006  -1.84991
  Beta  occ. eigenvalues --   -1.84975  -1.84946  -1.84899  -1.84362  -1.84252
  Beta  occ. eigenvalues --   -1.84236  -1.84226  -1.84190  -1.84182  -1.84121
  Beta  occ. eigenvalues --   -1.84102  -1.84077  -1.84074  -1.84041  -1.84034
  Beta  occ. eigenvalues --   -1.83916  -1.83894  -1.83871  -1.83863  -1.83847
  Beta  occ. eigenvalues --   -1.83801  -1.83787  -1.83775  -1.83766  -1.83677
  Beta  occ. eigenvalues --   -1.83672  -1.83658  -1.80107  -1.75484  -1.75255
  Beta  occ. eigenvalues --   -1.50095  -1.50089  -1.50030  -1.08598  -1.06965
  Beta  occ. eigenvalues --   -1.06937  -1.06890  -1.06034  -1.06018  -1.05992
  Beta  occ. eigenvalues --   -1.04601  -1.04582  -1.04580  -1.03985  -1.03964
  Beta  occ. eigenvalues --   -1.03474  -1.03309  -1.03246  -1.03233  -1.03072
  Beta  occ. eigenvalues --   -1.03034  -1.02189  -1.02162  -1.02124  -1.02051
  Beta  occ. eigenvalues --   -1.02015  -1.01985  -1.01940  -1.01897  -1.01793
  Beta  occ. eigenvalues --   -1.01765  -1.01737  -1.01648  -1.01565  -1.01527
  Beta  occ. eigenvalues --   -1.01304  -1.00792  -1.00755  -1.00737  -1.00675
  Beta  occ. eigenvalues --   -0.99659  -0.99590  -0.99544  -0.96301  -0.89996
  Beta  occ. eigenvalues --   -0.85554  -0.85545  -0.85498  -0.85387  -0.85382
  Beta  occ. eigenvalues --   -0.85381  -0.85378  -0.85328  -0.85311  -0.84284
  Beta  occ. eigenvalues --   -0.84029  -0.82694  -0.72146  -0.69617  -0.65275
  Beta  occ. eigenvalues --   -0.62366  -0.61738  -0.61694  -0.61652  -0.60784
  Beta  occ. eigenvalues --   -0.59028  -0.59013  -0.59002  -0.58837  -0.58798
  Beta  occ. eigenvalues --   -0.58773  -0.58755  -0.58711  -0.58580  -0.57268
  Beta  occ. eigenvalues --   -0.57104  -0.57054  -0.57015  -0.56888  -0.56466
  Beta  occ. eigenvalues --   -0.56412  -0.56364  -0.55746  -0.55560  -0.55335
  Beta  occ. eigenvalues --   -0.55322  -0.55305  -0.54539  -0.54209  -0.54156
  Beta  occ. eigenvalues --   -0.53991  -0.53603  -0.53558  -0.53508  -0.52781
  Beta  occ. eigenvalues --   -0.52651  -0.52618  -0.52534  -0.52494  -0.51487
  Beta  occ. eigenvalues --   -0.51485  -0.51471  -0.51351  -0.51271  -0.50877
  Beta  occ. eigenvalues --   -0.50472  -0.50444  -0.50414  -0.50329  -0.50285
  Beta  occ. eigenvalues --   -0.50190  -0.50076  -0.50036  -0.49976  -0.49737
  Beta  occ. eigenvalues --   -0.49682  -0.49651  -0.49438  -0.49396  -0.49255
  Beta  occ. eigenvalues --   -0.49199  -0.49176  -0.49068  -0.49052  -0.48959
  Beta  occ. eigenvalues --   -0.48766  -0.48618  -0.48597  -0.48500  -0.47803
  Beta  occ. eigenvalues --   -0.47693  -0.47576  -0.45951  -0.45845  -0.45808
  Beta  occ. eigenvalues --   -0.45731  -0.45651  -0.45533  -0.45200  -0.45152
  Beta  occ. eigenvalues --   -0.45130  -0.45029  -0.44835  -0.44625  -0.44440
  Beta  occ. eigenvalues --   -0.44427  -0.44390  -0.44215  -0.44186  -0.44159
  Beta  occ. eigenvalues --   -0.43307  -0.43173  -0.42487  -0.42413  -0.42374
  Beta  occ. eigenvalues --   -0.42238  -0.42103  -0.42087  -0.42082  -0.41608
  Beta  occ. eigenvalues --   -0.41595  -0.41538  -0.41378  -0.41029  -0.40923
  Beta  occ. eigenvalues --   -0.40728  -0.40700  -0.40659  -0.40381  -0.40367
  Beta  occ. eigenvalues --   -0.40333  -0.40172  -0.40161  -0.40125  -0.39817
  Beta  occ. eigenvalues --   -0.39576  -0.39300  -0.39145  -0.39060  -0.39052
  Beta  occ. eigenvalues --   -0.38854  -0.38814  -0.38760  -0.38612  -0.38578
  Beta  occ. eigenvalues --   -0.38476  -0.38324  -0.38283  -0.38245  -0.37200
  Beta  occ. eigenvalues --   -0.37180  -0.37108  -0.35269  -0.35242  -0.33787
  Beta  occ. eigenvalues --   -0.30633
  Beta virt. eigenvalues --   -0.06246  -0.06228  -0.04769  -0.04721  -0.04611
  Beta virt. eigenvalues --   -0.01409  -0.01316  -0.01275  -0.01087  -0.00886
  Beta virt. eigenvalues --   -0.00863  -0.00792  -0.00135  -0.00032  -0.00002

 Mulliken charges and spin densities:
               1          2
     1  Cl  -0.370176  -0.594341
     2  C   -0.038216  -0.085192
     3  C    0.013537   0.053645
     4  C   -0.035877  -0.081751
     5  C   -0.031773   0.052506
     6  C    0.006199  -0.100484
     7  C   -0.048726   0.051490
     8  H    0.046269   0.003619
     9  H    0.048704   0.003520
    10  H    0.054288  -0.001869
    11  H    0.056147   0.004412
    12  H    0.053130  -0.001804
    13  C    0.002328  -0.229281
    14  C   -0.010666  -0.087547
    15  H    0.073701   0.009820
    16  H    0.094866   0.004159
    17  H    0.094015   0.003692
    18  O   -0.671007  -0.000547
    19  O   -0.669102  -0.000475
    20  O   -0.665755  -0.001932
    21  O   -0.671277  -0.000518
    22  W    1.720066   0.000342
    23  W    1.661861   0.000540
    24  W    1.675214   0.000222
    25  W    1.682702   0.000186
    26  W    1.660671   0.002897
    27  W    1.707515   0.002573
    28  W    1.610779   0.003450
    29  W    1.669273   0.003002
    30  O   -0.351155  -0.000543
    31  O   -0.396481  -0.000586
    32  O   -0.395269  -0.000626
    33  O   -0.393366  -0.000574
    34  O   -0.671212  -0.000294
    35  O   -0.677001   0.000006
    36  O   -0.669457  -0.000098
    37  O   -0.671777  -0.000194
    38  O   -0.398490   0.002129
    39  O   -0.399593   0.002157
    40  O   -0.338575  -0.001694
    41  O   -0.396450   0.002129
    42  O   -0.676786   0.000061
    43  O   -0.670455   0.000180
    44  O   -0.667190   0.000335
    45  O   -0.672917   0.000112
    46  O   -0.398777   0.002307
    47  O   -0.353395   0.002176
    48  O   -0.389059   0.001730
    49  O   -0.396098   0.002350
    50  W    1.656992   0.003003
    51  W    1.661202   0.002882
    52  W    1.669746   0.003959
    53  W    1.666926   0.002825
    54  O   -0.720840   0.000148
    55  O   -0.703682   0.000034
    56  O   -0.720809   0.000220
    57  O   -0.718725   0.000106
    58  O   -0.701067  -0.000039
    59  O   -0.722637   0.000181
    60  O   -0.721390   0.000248
    61  O   -0.718522   0.000247
    62  O   -0.721143  -0.000166
    63  O   -0.704996   0.000016
    64  O   -0.721017  -0.000183
    65  O   -0.723633  -0.000195
    66  O   -0.881720   0.005522
    67  O   -0.881440   0.007956
    68  O   -0.879602   0.007876
    69  O   -0.888048   0.007278
    70  K    0.847261   0.000223
    71  K    0.846752   0.000249
    72  K    0.841820   0.000278
    73  V    1.203384   0.931933
 Sum of Mulliken charges =  -1.00000  -0.00000

 Dipole moment (field-independent basis, Debye):
    X=             29.4387    Y=            -13.4292    Z=            -30.9914  Tot=             44.8046
 Quadrupole moment (field-independent basis, Debye-Ang):
   XX=           -784.4345   YY=           -699.3908   ZZ=           -788.4489
   XY=            130.0606   XZ=            190.6268   YZ=            -91.6694

 Normal termination of Gaussian 16 at Sat Jun  1 17:28:07 2024.
