 Gaussian 16, Revision C.01,
 Gaussian 16:  ES64L-G16RevC.01  3-Jul-2019

 ----------------------------------------------------------------------
 # def2svp wb97xd scrf=(smd,solvent=acetonitrile) g09default scf=(xqc,m
 axcycle=64) force guess=read nosymm
 ----------------------------------------------------------------------

 ----------
 Title Card
 ----------
 Symbolic Z-matrix:
 Charge = -1 Multiplicity = 1

                          Input orientation:
 ---------------------------------------------------------------------
 Center     Atomic      Atomic             Coordinates (Angstroms)
 Number     Number       Type             X           Y           Z
 ---------------------------------------------------------------------
      1         17           0       -9.962132    7.809590   10.442728
      2          6           0       -8.309418    4.243501   12.236854
      3          6           0       -9.059814    3.915828   11.092205
      4          6           0      -10.005285    2.881415   11.199755
      5          6           0      -10.189181    2.191613   12.394050
      6          6           0       -9.430108    2.520961   13.517072
      7          6           0       -8.490370    3.551358   13.431661
      8          1           0       -7.577538    5.052851   12.199229
      9          1           0      -10.599499    2.620947   10.320416
     10          1           0      -10.918097    1.379363   12.439653
     11          1           0       -9.557280    1.967210   14.450349
     12          1           0       -7.887077    3.813310   14.304271
     13          6           0       -8.916953    4.617109    9.813989
     14          6           0       -8.088122    5.642216    9.563767
     15          1           0       -9.596216    4.289607    9.017114
     16          1           0       -8.061974    6.120596    8.582681
     17          1           0       -7.386488    6.023164   10.310705
     18          8           0       -1.015682   -1.765406    7.463970
     19          8           0       -8.404646   -1.322934    7.468045
     20          8           0       -7.060393    1.336740   10.486961
     21          8           0       -2.335646   -4.343383   10.558876
     22         74           0       -3.432093    0.744304    6.502476
     23         74           0       -6.009147   -3.822662    6.587866
     24         74           0       -3.636812    0.913808   11.402963
     25         74           0       -5.776073   -3.864698   11.468214
     26         74           0       -2.469993   -2.546361    6.381202
     27         74           0       -6.950448   -0.530516    6.351454
     28         74           0       -6.831135   -0.253706   11.594668
     29         74           0       -2.571195   -2.692207   11.626836
     30          8           0       -3.206197    1.952237    5.345325
     31          8           0       -6.137908   -5.085987    5.459897
     32          8           0       -2.705515    1.769171   12.538182
     33          8           0       -6.700131   -4.679509   12.639167
     34          8           0       -2.699692   -0.865782    5.593876
     35          8           0       -6.715951   -2.267497    5.633809
     36          8           0       -5.323441    0.562737   12.365408
     37          8           0       -4.068516   -3.507541   12.409384
     38          8           0        0.295231   -0.007890    9.281616
     39          8           0       -9.718320   -3.010667    9.341398
     40          8           0       -6.408232    3.414604    8.629407
     41          8           0       -2.962004   -6.446956    8.740179
     42          8           0       -1.816401    0.783350    7.489711
     43          8           0       -7.610450   -3.874588    7.565598
     44          8           0       -4.541141    2.216950   10.421721
     45          8           0       -4.865811   -5.210527   10.519506
     46          8           0       -1.650086   -3.475943    5.219494
     47          8           0       -7.818677    0.270589    5.145250
     48          8           0       -8.036098   -0.184853   12.788081
     49          8           0       -1.341784   -2.793180   12.796915
     50         74           0       -1.266071   -0.515102    8.845760
     51         74           0       -8.159462   -2.510907    8.886340
     52         74           0       -5.936850    1.852947    9.045559
     53         74           0       -3.470088   -4.880407    9.162857
     54          8           0       -4.239247   -3.092415    6.075289
     55          8           0       -5.177562   -0.031519    6.020273
     56          8           0       -6.187199   -1.999989   11.920397
     57          8           0       -3.190554   -0.949273   11.925445
     58          8           0       -4.400173    1.601183    7.849937
     59          8           0       -5.002567   -4.669943    7.933621
     60          8           0       -2.342900    0.596818   10.076274
     61          8           0       -7.067836   -3.603887   10.136318
     62          8           0       -2.577557   -3.868505    7.858718
     63          8           0       -6.851675    0.788733    7.802922
     64          8           0       -7.847727   -1.170851   10.163233
     65          8           0       -1.572610   -1.837087   10.153496
     66          8           0       -3.390344   -1.123631    8.014597
     67          8           0       -6.029828   -1.956406    8.044992
     68          8           0       -5.130655   -0.198365    9.954921
     69          8           0       -4.258339   -2.820596    9.982561
     70         19           0       -3.236853   -6.105851    5.675538
     71         19           0       -0.163161    0.032960   12.339697
     72         19           0       -9.255048   -2.928037   12.397428
     73         23           0       -4.704531   -1.520616    8.995753
 ---------------------------------------------------------------------

 SCF Done:  E(RwB97XD) =  -7327.69909161     A.U. after   13 cycles

 Alpha  occ. eigenvalues -- -197.28914-130.00022-129.99987-129.99895-101.47621
 Alpha  occ. eigenvalues --  -22.62085 -19.33422 -19.33386 -19.33385 -19.33376
 Alpha  occ. eigenvalues --  -19.30688 -19.30666 -19.30664 -19.30660 -19.30640
 Alpha  occ. eigenvalues --  -19.30636 -19.30606 -19.30596 -19.30483 -19.30295
 Alpha  occ. eigenvalues --  -19.30285 -19.30014 -19.29332 -19.29329 -19.29306
 Alpha  occ. eigenvalues --  -19.29301 -19.29299 -19.29292 -19.29277 -19.29227
 Alpha  occ. eigenvalues --  -19.29169 -19.29157 -19.29148 -19.29122 -19.29119
 Alpha  occ. eigenvalues --  -19.29106 -19.29097 -19.29078 -19.29075 -19.29061
 Alpha  occ. eigenvalues --  -19.29032 -19.29026 -19.28978 -19.28929 -19.28920
 Alpha  occ. eigenvalues --  -19.28704 -19.11035 -19.11025 -19.11022 -13.37422
 Alpha  occ. eigenvalues --  -13.37386 -13.37283 -10.70352 -10.70344 -10.70344
 Alpha  occ. eigenvalues --  -10.70316 -10.70308 -10.70308 -10.70214 -10.70207
 Alpha  occ. eigenvalues --  -10.70204 -10.29715 -10.29302 -10.29218 -10.29023
 Alpha  occ. eigenvalues --  -10.28900 -10.28845 -10.27905 -10.27222  -9.38085
 Alpha  occ. eigenvalues --   -7.12907  -7.12867  -7.12862  -3.23293  -3.23277
 Alpha  occ. eigenvalues --   -3.23263  -3.23261  -3.23258  -3.23239  -3.23200
 Alpha  occ. eigenvalues --   -3.23194  -3.23129  -3.22903  -3.22890  -3.22601
 Alpha  occ. eigenvalues --   -2.91461  -1.93875  -1.93851  -1.93838  -1.87694
 Alpha  occ. eigenvalues --   -1.87631  -1.87620  -1.87545  -1.87461  -1.87446
 Alpha  occ. eigenvalues --   -1.87436  -1.87417  -1.87347  -1.87209  -1.87180
 Alpha  occ. eigenvalues --   -1.86949  -1.86610  -1.86490  -1.86480  -1.86466
 Alpha  occ. eigenvalues --   -1.86431  -1.86389  -1.86314  -1.86291  -1.86280
 Alpha  occ. eigenvalues --   -1.86268  -1.86238  -1.86204  -1.86134  -1.86101
 Alpha  occ. eigenvalues --   -1.86095  -1.86067  -1.86032  -1.85966  -1.85946
 Alpha  occ. eigenvalues --   -1.85879  -1.85848  -1.85754  -1.85597  -1.85521
 Alpha  occ. eigenvalues --   -1.51117  -1.51083  -1.50981  -1.12927  -1.11158
 Alpha  occ. eigenvalues --   -1.11039  -1.11035  -1.08921  -1.08539  -1.08505
 Alpha  occ. eigenvalues --   -1.08315  -1.07521  -1.07448  -1.07428  -1.06908
 Alpha  occ. eigenvalues --   -1.06886  -1.06844  -1.06312  -1.06268  -1.05341
 Alpha  occ. eigenvalues --   -1.05328  -1.04962  -1.04954  -1.04910  -1.04215
 Alpha  occ. eigenvalues --   -1.04202  -1.04181  -1.04017  -1.03998  -1.03994
 Alpha  occ. eigenvalues --   -1.03930  -1.03881  -1.03862  -1.03746  -1.03693
 Alpha  occ. eigenvalues --   -1.03596  -1.03530  -1.03245  -1.03230  -1.03129
 Alpha  occ. eigenvalues --   -1.03101  -1.03056  -1.02876  -0.94294  -0.86594
 Alpha  occ. eigenvalues --   -0.86562  -0.86469  -0.86406  -0.86398  -0.86393
 Alpha  occ. eigenvalues --   -0.86361  -0.86358  -0.86264  -0.86250  -0.82721
 Alpha  occ. eigenvalues --   -0.79692  -0.70811  -0.69645  -0.67928  -0.64618
 Alpha  occ. eigenvalues --   -0.63979  -0.63926  -0.63894  -0.63177  -0.63153
 Alpha  occ. eigenvalues --   -0.63089  -0.62901  -0.62593  -0.62555  -0.61851
 Alpha  occ. eigenvalues --   -0.61586  -0.61568  -0.61461  -0.61259  -0.61249
 Alpha  occ. eigenvalues --   -0.61195  -0.60432  -0.59460  -0.59419  -0.59408
 Alpha  occ. eigenvalues --   -0.59349  -0.59337  -0.58595  -0.58014  -0.57976
 Alpha  occ. eigenvalues --   -0.57911  -0.56988  -0.56969  -0.56909  -0.56250
 Alpha  occ. eigenvalues --   -0.56230  -0.56089  -0.55703  -0.54873  -0.54811
 Alpha  occ. eigenvalues --   -0.54776  -0.54488  -0.54226  -0.54106  -0.54055
 Alpha  occ. eigenvalues --   -0.53964  -0.53945  -0.53274  -0.53252  -0.53088
 Alpha  occ. eigenvalues --   -0.53038  -0.52912  -0.52709  -0.52685  -0.52654
 Alpha  occ. eigenvalues --   -0.52635  -0.52491  -0.52464  -0.52363  -0.51557
 Alpha  occ. eigenvalues --   -0.51530  -0.51313  -0.51300  -0.51258  -0.51200
 Alpha  occ. eigenvalues --   -0.51142  -0.51110  -0.50961  -0.50812  -0.50627
 Alpha  occ. eigenvalues --   -0.50600  -0.50582  -0.49936  -0.49903  -0.49260
 Alpha  occ. eigenvalues --   -0.49245  -0.49163  -0.49156  -0.49146  -0.49088
 Alpha  occ. eigenvalues --   -0.48878  -0.48008  -0.47995  -0.47870  -0.47559
 Alpha  occ. eigenvalues --   -0.47354  -0.47254  -0.47196  -0.46977  -0.46921
 Alpha  occ. eigenvalues --   -0.46830  -0.46597  -0.46574  -0.46447  -0.46124
 Alpha  occ. eigenvalues --   -0.46080  -0.46029  -0.45544  -0.45089  -0.44903
 Alpha  occ. eigenvalues --   -0.44867  -0.44154  -0.44117  -0.43984  -0.43434
 Alpha  occ. eigenvalues --   -0.43295  -0.43231  -0.43103  -0.43092  -0.43043
 Alpha  occ. eigenvalues --   -0.42709  -0.42699  -0.42671  -0.42571  -0.42562
 Alpha  occ. eigenvalues --   -0.42478  -0.42463  -0.42427  -0.42286  -0.42267
 Alpha  occ. eigenvalues --   -0.42235  -0.42016  -0.41886  -0.41826  -0.41810
 Alpha  occ. eigenvalues --   -0.41203  -0.41178  -0.41082  -0.41039  -0.40580
 Alpha  occ. eigenvalues --   -0.40543  -0.40537  -0.40271  -0.39419  -0.39396
 Alpha  occ. eigenvalues --   -0.36727  -0.32468  -0.28816  -0.24558  -0.24513
 Alpha  occ. eigenvalues --   -0.22887
 Alpha virt. eigenvalues --   -0.09005  -0.08891  -0.08346  -0.08325  -0.06899
 Alpha virt. eigenvalues --   -0.06868  -0.06791  -0.04026  -0.03909  -0.03859
 Alpha virt. eigenvalues --   -0.03595  -0.03384  -0.03325  -0.03147  -0.03029

 Mulliken charges:
               1
     1  Cl  -0.922609
     2  C   -0.083693
     3  C    0.041194
     4  C   -0.078969
     5  C   -0.033460
     6  C   -0.032994
     7  C   -0.050321
     8  H    0.026672
     9  H    0.027838
    10  H    0.040003
    11  H    0.037089
    12  H    0.039016
    13  C   -0.082622
    14  C    0.029227
    15  H    0.014809
    16  H    0.034671
    17  H    0.034919
    18  O   -0.663276
    19  O   -0.661145
    20  O   -0.655318
    21  O   -0.662639
    22  W    1.736205
    23  W    1.675909
    24  W    1.687199
    25  W    1.696805
    26  W    1.675257
    27  W    1.725828
    28  W    1.620485
    29  W    1.684859
    30  O   -0.321817
    31  O   -0.367476
    32  O   -0.367413
    33  O   -0.366191
    34  O   -0.663888
    35  O   -0.670382
    36  O   -0.661073
    37  O   -0.662964
    38  O   -0.366431
    39  O   -0.367182
    40  O   -0.291057
    41  O   -0.367239
    42  O   -0.669975
    43  O   -0.662423
    44  O   -0.658931
    45  O   -0.664783
    46  O   -0.366713
    47  O   -0.321451
    48  O   -0.356201
    49  O   -0.367046
    50  W    1.671859
    51  W    1.676235
    52  W    1.672205
    53  W    1.682987
    54  O   -0.723429
    55  O   -0.705890
    56  O   -0.724783
    57  O   -0.721111
    58  O   -0.703915
    59  O   -0.725905
    60  O   -0.724262
    61  O   -0.721026
    62  O   -0.722782
    63  O   -0.706770
    64  O   -0.721956
    65  O   -0.725785
    66  O   -0.799526
    67  O   -0.798745
    68  O   -0.797619
    69  O   -0.810293
    70  K    0.861828
    71  K    0.861093
    72  K    0.856746
    73  V    1.190542
 Sum of Mulliken charges =  -1.00000

 Dipole moment (field-independent basis, Debye):
    X=             51.7532    Y=            -49.6846    Z=            -38.6142  Tot=             81.4739
 Quadrupole moment (field-independent basis, Debye-Ang):
   XX=          -1072.6774   YY=           -859.3001   ZZ=           -913.6485
   XY=            443.5623   XZ=            463.9045   YZ=           -460.0566

 Normal termination of Gaussian 16 at Sat Jun  1 18:14:26 2024.
