 Gaussian 16, Revision C.01,
 Gaussian 16:  ES64L-G16RevC.01  3-Jul-2019

 ----------------------------------------------------------------------
 # def2svp wb97xd scrf=(smd,solvent=acetonitrile) g09default scf=(xqc,m
 axcycle=64) force guess=read nosymm
 ----------------------------------------------------------------------

 ----------
 Title Card
 ----------
 Symbolic Z-matrix:
 Charge = -1 Multiplicity = 1

                          Input orientation:
 ---------------------------------------------------------------------
 Center     Atomic      Atomic             Coordinates (Angstroms)
 Number     Number       Type             X           Y           Z
 ---------------------------------------------------------------------
      1         17           0       -9.962132    7.809590   10.442728
      2          6           0       -8.309418    4.243501   12.236854
      3          6           0       -9.059814    3.915828   11.092205
      4          6           0      -10.005285    2.881415   11.199755
      5          6           0      -10.189181    2.191613   12.394050
      6          6           0       -9.430108    2.520961   13.517072
      7          6           0       -8.490370    3.551358   13.431661
      8          1           0       -7.577538    5.052851   12.199229
      9          1           0      -10.599499    2.620947   10.320416
     10          1           0      -10.918097    1.379363   12.439653
     11          1           0       -9.557280    1.967210   14.450349
     12          1           0       -7.887077    3.813310   14.304271
     13          6           0       -8.916953    4.617109    9.813989
     14          6           0       -8.088122    5.642216    9.563767
     15          1           0       -9.596216    4.289607    9.017114
     16          1           0       -8.061974    6.120596    8.582681
     17          1           0       -7.386488    6.023164   10.310705
     18          8           0       -1.015682   -1.765406    7.463970
     19          8           0       -8.404646   -1.322934    7.468045
     20          8           0       -7.060393    1.336740   10.486961
     21          8           0       -2.335646   -4.343383   10.558876
     22         74           0       -3.432093    0.744304    6.502476
     23         74           0       -6.009147   -3.822662    6.587866
     24         74           0       -3.636812    0.913808   11.402963
     25         74           0       -5.776073   -3.864698   11.468214
     26         74           0       -2.469993   -2.546361    6.381202
     27         74           0       -6.950448   -0.530516    6.351454
     28         74           0       -6.831135   -0.253706   11.594668
     29         74           0       -2.571195   -2.692207   11.626836
     30          8           0       -3.206197    1.952237    5.345325
     31          8           0       -6.137908   -5.085987    5.459897
     32          8           0       -2.705515    1.769171   12.538182
     33          8           0       -6.700131   -4.679509   12.639167
     34          8           0       -2.699692   -0.865782    5.593876
     35          8           0       -6.715951   -2.267497    5.633809
     36          8           0       -5.323441    0.562737   12.365408
     37          8           0       -4.068516   -3.507541   12.409384
     38          8           0        0.295231   -0.007890    9.281616
     39          8           0       -9.718320   -3.010667    9.341398
     40          8           0       -6.408232    3.414604    8.629407
     41          8           0       -2.962004   -6.446956    8.740179
     42          8           0       -1.816401    0.783350    7.489711
     43          8           0       -7.610450   -3.874588    7.565598
     44          8           0       -4.541141    2.216950   10.421721
     45          8           0       -4.865811   -5.210527   10.519506
     46          8           0       -1.650086   -3.475943    5.219494
     47          8           0       -7.818677    0.270589    5.145250
     48          8           0       -8.036098   -0.184853   12.788081
     49          8           0       -1.341784   -2.793180   12.796915
     50         74           0       -1.266071   -0.515102    8.845760
     51         74           0       -8.159462   -2.510907    8.886340
     52         74           0       -5.936850    1.852947    9.045559
     53         74           0       -3.470088   -4.880407    9.162857
     54          8           0       -4.239247   -3.092415    6.075289
     55          8           0       -5.177562   -0.031519    6.020273
     56          8           0       -6.187199   -1.999989   11.920397
     57          8           0       -3.190554   -0.949273   11.925445
     58          8           0       -4.400173    1.601183    7.849937
     59          8           0       -5.002567   -4.669943    7.933621
     60          8           0       -2.342900    0.596818   10.076274
     61          8           0       -7.067836   -3.603887   10.136318
     62          8           0       -2.577557   -3.868505    7.858718
     63          8           0       -6.851675    0.788733    7.802922
     64          8           0       -7.847727   -1.170851   10.163233
     65          8           0       -1.572610   -1.837087   10.153496
     66          8           0       -3.390344   -1.123631    8.014597
     67          8           0       -6.029828   -1.956406    8.044992
     68          8           0       -5.130655   -0.198365    9.954921
     69          8           0       -4.258339   -2.820596    9.982561
     70         19           0       -3.236853   -6.105851    5.675538
     71         19           0       -0.163161    0.032960   12.339697
     72         19           0       -9.255048   -2.928037   12.397428
     73         23           0       -4.704531   -1.520616    8.995753
 ---------------------------------------------------------------------

 SCF Done:  E(UwB97XD) =  -7327.69993674     A.U. after   27 cycles

 Alpha  occ. eigenvalues --  -19.24451 -18.93602 -18.92518 -18.92464 -13.36401
 Alpha  occ. eigenvalues --  -13.36399 -13.36338 -10.69328 -10.69326 -10.69324
 Alpha  occ. eigenvalues --  -10.69323 -10.69321 -10.69321 -10.69267 -10.69262
 Alpha  occ. eigenvalues --  -10.69260 -10.32884 -10.32323 -10.31760 -10.30872
 Alpha  occ. eigenvalues --  -10.30854 -10.30783 -10.30481 -10.30373  -9.52201
 Alpha  occ. eigenvalues --   -7.27075  -7.26752  -7.26743  -3.21071  -3.21043
 Alpha  occ. eigenvalues --   -3.21041  -3.21040  -3.21010  -3.21002  -3.20992
 Alpha  occ. eigenvalues --   -3.20989  -3.20965  -3.20833  -3.20828  -3.20803
 Alpha  occ. eigenvalues --   -2.78453  -1.85311  -1.85277  -1.85259  -1.85227
 Alpha  occ. eigenvalues --   -1.85103  -1.85059  -1.85047  -1.85026  -1.85016
 Alpha  occ. eigenvalues --   -1.85006  -1.84972  -1.84926  -1.84381  -1.84269
 Alpha  occ. eigenvalues --   -1.84255  -1.84249  -1.84208  -1.84197  -1.84131
 Alpha  occ. eigenvalues --   -1.84115  -1.84088  -1.84085  -1.84056  -1.84051
 Alpha  occ. eigenvalues --   -1.83929  -1.83904  -1.83896  -1.83886  -1.83851
 Alpha  occ. eigenvalues --   -1.83810  -1.83797  -1.83791  -1.83774  -1.83675
 Alpha  occ. eigenvalues --   -1.83671  -1.83656  -1.81649  -1.81320  -1.81292
 Alpha  occ. eigenvalues --   -1.50112  -1.50109  -1.50050  -1.08634  -1.06998
 Alpha  occ. eigenvalues --   -1.06962  -1.06936  -1.06043  -1.06036  -1.06000
 Alpha  occ. eigenvalues --   -1.04604  -1.04592  -1.04580  -1.03994  -1.03971
 Alpha  occ. eigenvalues --   -1.03630  -1.03367  -1.03312  -1.03305  -1.03073
 Alpha  occ. eigenvalues --   -1.03047  -1.02221  -1.02199  -1.02170  -1.02077
 Alpha  occ. eigenvalues --   -1.02033  -1.02011  -1.01934  -1.01910  -1.01802
 Alpha  occ. eigenvalues --   -1.01779  -1.01763  -1.01636  -1.01578  -1.01568
 Alpha  occ. eigenvalues --   -1.01304  -1.00797  -1.00787  -1.00753  -1.00729
 Alpha  occ. eigenvalues --   -0.99915  -0.99837  -0.99764  -0.96065  -0.89266
 Alpha  occ. eigenvalues --   -0.85567  -0.85561  -0.85514  -0.85402  -0.85401
 Alpha  occ. eigenvalues --   -0.85399  -0.85397  -0.85347  -0.85331  -0.84131
 Alpha  occ. eigenvalues --   -0.82360  -0.80736  -0.71815  -0.69502  -0.64973
 Alpha  occ. eigenvalues --   -0.62365  -0.61742  -0.61703  -0.61657  -0.60562
 Alpha  occ. eigenvalues --   -0.59028  -0.59012  -0.58995  -0.58913  -0.58859
 Alpha  occ. eigenvalues --   -0.58794  -0.58782  -0.58736  -0.58589  -0.57331
 Alpha  occ. eigenvalues --   -0.57294  -0.57256  -0.57012  -0.56746  -0.56499
 Alpha  occ. eigenvalues --   -0.56466  -0.56430  -0.56007  -0.55840  -0.55373
 Alpha  occ. eigenvalues --   -0.55365  -0.55328  -0.54341  -0.54223  -0.54185
 Alpha  occ. eigenvalues --   -0.54016  -0.53648  -0.53601  -0.53582  -0.52731
 Alpha  occ. eigenvalues --   -0.52643  -0.52636  -0.52548  -0.52504  -0.51511
 Alpha  occ. eigenvalues --   -0.51491  -0.51490  -0.51359  -0.51319  -0.50680
 Alpha  occ. eigenvalues --   -0.50606  -0.50521  -0.50487  -0.50378  -0.50333
 Alpha  occ. eigenvalues --   -0.50246  -0.50073  -0.50062  -0.50006  -0.49772
 Alpha  occ. eigenvalues --   -0.49733  -0.49670  -0.49481  -0.49447  -0.49285
 Alpha  occ. eigenvalues --   -0.49232  -0.49203  -0.49114  -0.49081  -0.48987
 Alpha  occ. eigenvalues --   -0.48774  -0.48601  -0.48590  -0.48524  -0.47733
 Alpha  occ. eigenvalues --   -0.47717  -0.47106  -0.46498  -0.46021  -0.46005
 Alpha  occ. eigenvalues --   -0.45812  -0.45758  -0.45700  -0.45617  -0.45211
 Alpha  occ. eigenvalues --   -0.45133  -0.45131  -0.44842  -0.44632  -0.44497
 Alpha  occ. eigenvalues --   -0.44467  -0.44446  -0.44266  -0.44256  -0.44228
 Alpha  occ. eigenvalues --   -0.43358  -0.43023  -0.42535  -0.42501  -0.42452
 Alpha  occ. eigenvalues --   -0.42283  -0.42166  -0.42160  -0.42033  -0.41638
 Alpha  occ. eigenvalues --   -0.41610  -0.41567  -0.41033  -0.40997  -0.40813
 Alpha  occ. eigenvalues --   -0.40769  -0.40732  -0.40412  -0.40396  -0.40372
 Alpha  occ. eigenvalues --   -0.40216  -0.40183  -0.40181  -0.40157  -0.39894
 Alpha  occ. eigenvalues --   -0.39325  -0.39238  -0.39208  -0.39154  -0.38981
 Alpha  occ. eigenvalues --   -0.38903  -0.38888  -0.38821  -0.38695  -0.38672
 Alpha  occ. eigenvalues --   -0.38344  -0.38315  -0.38277  -0.37842  -0.37202
 Alpha  occ. eigenvalues --   -0.37183  -0.34479  -0.34452  -0.33523  -0.30158
 Alpha  occ. eigenvalues --   -0.25336
 Alpha virt. eigenvalues --   -0.11541  -0.06252  -0.06233  -0.04779  -0.04732
 Alpha virt. eigenvalues --   -0.04631  -0.01430  -0.01344  -0.01303  -0.01101
 Alpha virt. eigenvalues --   -0.00926  -0.00907  -0.00838  -0.00147  -0.00049

  Beta  occ. eigenvalues -- -197.10304-129.98995-129.98993-129.98944-101.62198
  Beta  occ. eigenvalues --  -22.42769 -19.28480 -19.28476 -19.28432 -19.28393
  Beta  occ. eigenvalues --  -19.28385 -19.28370 -19.28358 -19.28344 -19.28336
  Beta  occ. eigenvalues --  -19.28253 -19.28220 -19.28157 -19.26979 -19.26919
  Beta  occ. eigenvalues --  -19.26917 -19.26898 -19.26890 -19.26882 -19.26875
  Beta  occ. eigenvalues --  -19.26858 -19.26853 -19.26838 -19.26826 -19.26819
  Beta  occ. eigenvalues --  -19.26814 -19.26807 -19.26800 -19.26792 -19.26783
  Beta  occ. eigenvalues --  -19.26762 -19.26748 -19.26745 -19.26729 -19.26727
  Beta  occ. eigenvalues --  -19.26642 -19.26622 -19.24566 -19.24484 -19.24469
  Beta  occ. eigenvalues --  -19.24425 -18.93259 -18.91083 -18.90978 -13.36401
  Beta  occ. eigenvalues --  -13.36399 -13.36338 -10.69328 -10.69326 -10.69324
  Beta  occ. eigenvalues --  -10.69323 -10.69321 -10.69321 -10.69267 -10.69262
  Beta  occ. eigenvalues --  -10.69260 -10.33139 -10.32500 -10.31711 -10.30962
  Beta  occ. eigenvalues --  -10.30958 -10.30870 -10.30431 -10.30321  -9.52650
  Beta  occ. eigenvalues --   -7.28484  -7.27059  -7.27050  -3.21071  -3.21041
  Beta  occ. eigenvalues --   -3.21040  -3.21036  -3.21004  -3.20996  -3.20986
  Beta  occ. eigenvalues --   -3.20983  -3.20959  -3.20830  -3.20827  -3.20797
  Beta  occ. eigenvalues --   -2.74403  -1.85306  -1.85271  -1.85255  -1.85218
  Beta  occ. eigenvalues --   -1.85098  -1.85053  -1.85042  -1.85020  -1.85008
  Beta  occ. eigenvalues --   -1.84996  -1.84968  -1.84918  -1.84379  -1.84267
  Beta  occ. eigenvalues --   -1.84252  -1.84246  -1.84205  -1.84194  -1.84129
  Beta  occ. eigenvalues --   -1.84113  -1.84085  -1.84083  -1.84053  -1.84047
  Beta  occ. eigenvalues --   -1.83927  -1.83900  -1.83893  -1.83883  -1.83848
  Beta  occ. eigenvalues --   -1.83807  -1.83794  -1.83788  -1.83771  -1.83674
  Beta  occ. eigenvalues --   -1.83669  -1.83654  -1.80318  -1.75689  -1.75462
  Beta  occ. eigenvalues --   -1.50112  -1.50109  -1.50050  -1.08617  -1.06978
  Beta  occ. eigenvalues --   -1.06944  -1.06911  -1.06041  -1.06035  -1.05998
  Beta  occ. eigenvalues --   -1.04604  -1.04591  -1.04582  -1.03994  -1.03973
  Beta  occ. eigenvalues --   -1.03564  -1.03337  -1.03283  -1.03270  -1.03072
  Beta  occ. eigenvalues --   -1.03040  -1.02203  -1.02176  -1.02154  -1.02067
  Beta  occ. eigenvalues --   -1.02029  -1.01998  -1.01931  -1.01901  -1.01799
  Beta  occ. eigenvalues --   -1.01776  -1.01760  -1.01639  -1.01574  -1.01553
  Beta  occ. eigenvalues --   -1.01304  -1.00795  -1.00765  -1.00748  -1.00715
  Beta  occ. eigenvalues --   -0.99780  -0.99679  -0.99635  -0.96270  -0.89969
  Beta  occ. eigenvalues --   -0.85567  -0.85561  -0.85514  -0.85402  -0.85401
  Beta  occ. eigenvalues --   -0.85399  -0.85397  -0.85347  -0.85331  -0.84298
  Beta  occ. eigenvalues --   -0.84139  -0.82704  -0.72084  -0.69612  -0.65219
  Beta  occ. eigenvalues --   -0.62365  -0.61741  -0.61702  -0.61656  -0.60752
  Beta  occ. eigenvalues --   -0.59027  -0.59009  -0.58993  -0.58846  -0.58793
  Beta  occ. eigenvalues --   -0.58771  -0.58758  -0.58713  -0.58589  -0.57309
  Beta  occ. eigenvalues --   -0.57140  -0.57091  -0.57000  -0.56900  -0.56499
  Beta  occ. eigenvalues --   -0.56440  -0.56395  -0.55796  -0.55607  -0.55355
  Beta  occ. eigenvalues --   -0.55345  -0.55326  -0.54512  -0.54218  -0.54178
  Beta  occ. eigenvalues --   -0.54008  -0.53626  -0.53578  -0.53534  -0.52777
  Beta  occ. eigenvalues --   -0.52662  -0.52630  -0.52535  -0.52497  -0.51490
  Beta  occ. eigenvalues --   -0.51483  -0.51469  -0.51324  -0.51261  -0.50866
  Beta  occ. eigenvalues --   -0.50494  -0.50464  -0.50411  -0.50325  -0.50295
  Beta  occ. eigenvalues --   -0.50208  -0.50069  -0.50033  -0.49977  -0.49729
  Beta  occ. eigenvalues --   -0.49693  -0.49646  -0.49473  -0.49436  -0.49287
  Beta  occ. eigenvalues --   -0.49218  -0.49197  -0.49087  -0.49072  -0.48966
  Beta  occ. eigenvalues --   -0.48769  -0.48612  -0.48591  -0.48517  -0.47796
  Beta  occ. eigenvalues --   -0.47700  -0.47570  -0.45910  -0.45875  -0.45804
  Beta  occ. eigenvalues --   -0.45764  -0.45675  -0.45563  -0.45212  -0.45160
  Beta  occ. eigenvalues --   -0.45133  -0.45058  -0.44843  -0.44632  -0.44470
  Beta  occ. eigenvalues --   -0.44462  -0.44412  -0.44249  -0.44221  -0.44201
  Beta  occ. eigenvalues --   -0.43351  -0.43117  -0.42516  -0.42454  -0.42414
  Beta  occ. eigenvalues --   -0.42259  -0.42121  -0.42111  -0.42097  -0.41627
  Beta  occ. eigenvalues --   -0.41614  -0.41546  -0.41390  -0.41037  -0.40950
  Beta  occ. eigenvalues --   -0.40742  -0.40715  -0.40667  -0.40391  -0.40381
  Beta  occ. eigenvalues --   -0.40346  -0.40181  -0.40176  -0.40131  -0.39835
  Beta  occ. eigenvalues --   -0.39602  -0.39322  -0.39177  -0.39087  -0.39085
  Beta  occ. eigenvalues --   -0.38888  -0.38852  -0.38794  -0.38678  -0.38644
  Beta  occ. eigenvalues --   -0.38551  -0.38341  -0.38304  -0.38266  -0.37273
  Beta  occ. eigenvalues --   -0.37204  -0.37170  -0.35405  -0.35380  -0.33767
  Beta  occ. eigenvalues --   -0.30677
  Beta virt. eigenvalues --   -0.06251  -0.06233  -0.04778  -0.04731  -0.04629
  Beta virt. eigenvalues --   -0.01426  -0.01339  -0.01298  -0.01096  -0.00922
  Beta virt. eigenvalues --   -0.00904  -0.00836  -0.00148  -0.00040  -0.00022

 Mulliken charges and spin densities:
               1          2
     1  Cl  -0.362873  -0.603523
     2  C   -0.039180  -0.082965
     3  C    0.014120   0.051423
     4  C   -0.036084  -0.080190
     5  C   -0.031652   0.051338
     6  C    0.005797  -0.098536
     7  C   -0.048823   0.050358
     8  H    0.046316   0.003526
     9  H    0.048215   0.003446
    10  H    0.054102  -0.001825
    11  H    0.055991   0.004327
    12  H    0.052983  -0.001763
    13  C    0.002243  -0.221879
    14  C   -0.015722  -0.086857
    15  H    0.073755   0.009537
    16  H    0.095040   0.004273
    17  H    0.093774   0.003736
    18  O   -0.671774  -0.000558
    19  O   -0.669726  -0.000487
    20  O   -0.666058  -0.001924
    21  O   -0.671395  -0.000526
    22  W    1.719879   0.000338
    23  W    1.661671   0.000528
    24  W    1.675215   0.000215
    25  W    1.682988   0.000185
    26  W    1.661030   0.002805
    27  W    1.707648   0.002503
    28  W    1.611796   0.003362
    29  W    1.670263   0.002947
    30  O   -0.351339  -0.000547
    31  O   -0.395766  -0.000589
    32  O   -0.395585  -0.000629
    33  O   -0.394716  -0.000582
    34  O   -0.671942  -0.000287
    35  O   -0.677405   0.000005
    36  O   -0.669685  -0.000093
    37  O   -0.671714  -0.000189
    38  O   -0.395989   0.002094
    39  O   -0.396969   0.002119
    40  O   -0.339907  -0.001571
    41  O   -0.397109   0.002128
    42  O   -0.677239   0.000064
    43  O   -0.670823   0.000179
    44  O   -0.667337   0.000330
    45  O   -0.672989   0.000115
    46  O   -0.396369   0.002264
    47  O   -0.352555   0.002148
    48  O   -0.388541   0.001718
    49  O   -0.396882   0.002350
    50  W    1.657364   0.002903
    51  W    1.661735   0.002784
    52  W    1.670123   0.003892
    53  W    1.668078   0.002762
    54  O   -0.721252   0.000138
    55  O   -0.703927   0.000030
    56  O   -0.721158   0.000211
    57  O   -0.718989   0.000097
    58  O   -0.701397  -0.000037
    59  O   -0.723047   0.000177
    60  O   -0.721638   0.000236
    61  O   -0.718535   0.000237
    62  O   -0.721247  -0.000165
    63  O   -0.704994   0.000012
    64  O   -0.721222  -0.000182
    65  O   -0.723840  -0.000194
    66  O   -0.881720   0.005452
    67  O   -0.881637   0.007808
    68  O   -0.880587   0.007682
    69  O   -0.889087   0.007139
    70  K    0.848017   0.000215
    71  K    0.847438   0.000239
    72  K    0.842617   0.000267
    73  V    1.200228   0.933458
 Sum of Mulliken charges =  -1.00000   0.00000

 Dipole moment (field-independent basis, Debye):
    X=             29.4207    Y=            -13.4673    Z=            -31.0123  Tot=             44.8187
 Quadrupole moment (field-independent basis, Debye-Ang):
   XX=           -783.2919   YY=           -699.0897   ZZ=           -788.9377
   XY=            130.0096   XZ=            190.3526   YZ=            -91.4872

 Normal termination of Gaussian 16 at Sat Jun  1 18:02:40 2024.
