 Gaussian 16, Revision C.01,
 Gaussian 16:  ES64L-G16RevC.01  3-Jul-2019

 ----------------------------------------------------------------------
 # def2svp wb97xd scrf=(smd,solvent=acetonitrile) g09default scf=(xqc,m
 axcycle=64) force guess=read nosymm
 ----------------------------------------------------------------------

 ----------
 Title Card
 ----------
 Symbolic Z-matrix:
 Charge = -1 Multiplicity = 1

                          Input orientation:
 ---------------------------------------------------------------------
 Center     Atomic      Atomic             Coordinates (Angstroms)
 Number     Number       Type             X           Y           Z
 ---------------------------------------------------------------------
      1         17           0       -9.966540    7.824232   10.446741
      2          6           0       -8.308854    4.242189   12.236504
      3          6           0       -9.059925    3.915290   11.092295
      4          6           0      -10.004706    2.880027   11.199402
      5          6           0      -10.189373    2.190779   12.393953
      6          6           0       -9.430095    2.521234   13.517194
      7          6           0       -8.490210    3.550993   13.431096
      8          1           0       -7.577071    5.052302   12.198998
      9          1           0      -10.600107    2.619289   10.320552
     10          1           0      -10.919196    1.379453   12.440862
     11          1           0       -9.557299    1.967730   14.450487
     12          1           0       -7.887619    3.814157   14.304603
     13          6           0       -8.920376    4.617473    9.814621
     14          6           0       -8.090943    5.646390    9.564610
     15          1           0       -9.593720    4.286001    9.016534
     16          1           0       -8.062122    6.119164    8.581488
     17          1           0       -7.386309    6.021471   10.309729
     18          8           0       -1.014583   -1.765676    7.463862
     19          8           0       -8.405949   -1.322630    7.468133
     20          8           0       -7.060894    1.337780   10.486593
     21          8           0       -2.334532   -4.344298   10.558782
     22         74           0       -3.430944    0.743852    6.501368
     23         74           0       -6.009592   -3.822688    6.587568
     24         74           0       -3.636620    0.914072   11.403815
     25         74           0       -5.776348   -3.865427   11.468909
     26         74           0       -2.470276   -2.545845    6.381593
     27         74           0       -6.950065   -0.531304    6.351215
     28         74           0       -6.830557   -0.253306   11.594478
     29         74           0       -2.571284   -2.692637   11.627264
     30          8           0       -3.205555    1.951029    5.344402
     31          8           0       -6.138507   -5.085138    5.458881
     32          8           0       -2.706547    1.769137   12.539145
     33          8           0       -6.698933   -4.679693   12.639662
     34          8           0       -2.699716   -0.866026    5.591528
     35          8           0       -6.716031   -2.267754    5.631546
     36          8           0       -5.323543    0.562699   12.367390
     37          8           0       -4.068372   -3.507541   12.411190
     38          8           0        0.294860   -0.007550    9.280486
     39          8           0       -9.717806   -3.010865    9.339895
     40          8           0       -6.405099    3.413801    8.628865
     41          8           0       -2.962434   -6.446411    8.741318
     42          8           0       -1.815404    0.784893    7.489077
     43          8           0       -7.610981   -3.876352    7.565036
     44          8           0       -4.539394    2.218029   10.422246
     45          8           0       -4.866734   -5.212234   10.519979
     46          8           0       -1.649062   -3.475149    5.220048
     47          8           0       -7.819304    0.269875    5.146557
     48          8           0       -8.035855   -0.183653   12.786893
     49          8           0       -1.342171   -2.794581   12.795996
     50         74           0       -1.266966   -0.515111    8.845303
     51         74           0       -8.158642   -2.510820    8.885722
     52         74           0       -5.935759    1.853092    9.045282
     53         74           0       -3.470369   -4.880668    9.163168
     54          8           0       -4.238753   -3.093224    6.074085
     55          8           0       -5.178148   -0.030297    6.018614
     56          8           0       -6.188239   -2.000345   11.921674
     57          8           0       -3.189138   -0.949158   11.926904
     58          8           0       -4.399112    1.601177    7.848763
     59          8           0       -5.002804   -4.671593    7.932171
     60          8           0       -2.341935    0.597991   10.077601
     61          8           0       -7.068624   -3.605162   10.137661
     62          8           0       -2.578094   -3.869368    7.858335
     63          8           0       -6.850644    0.789112    7.802663
     64          8           0       -7.847883   -1.171655   10.163470
     65          8           0       -1.572360   -1.836279   10.153853
     66          8           0       -3.389496   -1.124624    8.014902
     67          8           0       -6.030687   -1.955522    8.045200
     68          8           0       -5.132112   -0.198268    9.954608
     69          8           0       -4.257010   -2.821035    9.982214
     70         19           0       -3.236301   -6.108224    5.673798
     71         19           0       -0.160983    0.034032   12.341439
     72         19           0       -9.257477   -2.928424   12.399576
     73         23           0       -4.704544   -1.520623    8.995481
 ---------------------------------------------------------------------

 SCF Done:  E(RwB97XD) =  -7327.69913679     A.U. after   12 cycles

 Alpha  occ. eigenvalues -- -197.28978-130.00030-129.99994-129.99904-101.47620
 Alpha  occ. eigenvalues --  -22.62147 -19.33452 -19.33439 -19.33437 -19.33413
 Alpha  occ. eigenvalues --  -19.30696 -19.30678 -19.30674 -19.30658 -19.30655
 Alpha  occ. eigenvalues --  -19.30636 -19.30609 -19.30601 -19.30487 -19.30307
 Alpha  occ. eigenvalues --  -19.30305 -19.30038 -19.29328 -19.29322 -19.29298
 Alpha  occ. eigenvalues --  -19.29292 -19.29291 -19.29283 -19.29271 -19.29219
 Alpha  occ. eigenvalues --  -19.29173 -19.29149 -19.29147 -19.29118 -19.29106
 Alpha  occ. eigenvalues --  -19.29099 -19.29089 -19.29089 -19.29074 -19.29061
 Alpha  occ. eigenvalues --  -19.29028 -19.29020 -19.28970 -19.28934 -19.28926
 Alpha  occ. eigenvalues --  -19.28693 -19.11097 -19.11088 -19.11083 -13.37430
 Alpha  occ. eigenvalues --  -13.37394 -13.37292 -10.70360 -10.70352 -10.70352
 Alpha  occ. eigenvalues --  -10.70324 -10.70316 -10.70316 -10.70224 -10.70216
 Alpha  occ. eigenvalues --  -10.70214 -10.29722 -10.29302 -10.29225 -10.29026
 Alpha  occ. eigenvalues --  -10.28905 -10.28855 -10.27955 -10.27276  -9.38083
 Alpha  occ. eigenvalues --   -7.12905  -7.12865  -7.12860  -3.23288  -3.23271
 Alpha  occ. eigenvalues --   -3.23265  -3.23261  -3.23252  -3.23243  -3.23198
 Alpha  occ. eigenvalues --   -3.23189  -3.23125  -3.22904  -3.22893  -3.22602
 Alpha  occ. eigenvalues --   -2.91512  -1.93925  -1.93899  -1.93883  -1.87704
 Alpha  occ. eigenvalues --   -1.87631  -1.87622  -1.87550  -1.87470  -1.87457
 Alpha  occ. eigenvalues --   -1.87434  -1.87417  -1.87351  -1.87222  -1.87193
 Alpha  occ. eigenvalues --   -1.86970  -1.86604  -1.86485  -1.86476  -1.86458
 Alpha  occ. eigenvalues --   -1.86428  -1.86382  -1.86311  -1.86290  -1.86277
 Alpha  occ. eigenvalues --   -1.86264  -1.86231  -1.86196  -1.86127  -1.86094
 Alpha  occ. eigenvalues --   -1.86092  -1.86063  -1.86024  -1.85960  -1.85944
 Alpha  occ. eigenvalues --   -1.85879  -1.85845  -1.85753  -1.85593  -1.85516
 Alpha  occ. eigenvalues --   -1.51124  -1.51090  -1.50989  -1.12943  -1.11170
 Alpha  occ. eigenvalues --   -1.11061  -1.11056  -1.08924  -1.08529  -1.08490
 Alpha  occ. eigenvalues --   -1.08306  -1.07519  -1.07454  -1.07426  -1.06897
 Alpha  occ. eigenvalues --   -1.06875  -1.06831  -1.06300  -1.06254  -1.05331
 Alpha  occ. eigenvalues --   -1.05317  -1.04952  -1.04945  -1.04900  -1.04208
 Alpha  occ. eigenvalues --   -1.04197  -1.04173  -1.04020  -1.04009  -1.03996
 Alpha  occ. eigenvalues --   -1.03932  -1.03879  -1.03865  -1.03746  -1.03695
 Alpha  occ. eigenvalues --   -1.03610  -1.03531  -1.03264  -1.03243  -1.03123
 Alpha  occ. eigenvalues --   -1.03102  -1.03047  -1.02889  -0.94302  -0.86598
 Alpha  occ. eigenvalues --   -0.86567  -0.86474  -0.86404  -0.86400  -0.86400
 Alpha  occ. eigenvalues --   -0.86368  -0.86364  -0.86272  -0.86258  -0.82729
 Alpha  occ. eigenvalues --   -0.79675  -0.70805  -0.69669  -0.67927  -0.64597
 Alpha  occ. eigenvalues --   -0.63964  -0.63909  -0.63878  -0.63196  -0.63175
 Alpha  occ. eigenvalues --   -0.63101  -0.62930  -0.62606  -0.62561  -0.61864
 Alpha  occ. eigenvalues --   -0.61577  -0.61560  -0.61457  -0.61239  -0.61231
 Alpha  occ. eigenvalues --   -0.61174  -0.60415  -0.59456  -0.59419  -0.59409
 Alpha  occ. eigenvalues --   -0.59351  -0.59336  -0.58607  -0.57998  -0.57961
 Alpha  occ. eigenvalues --   -0.57894  -0.56997  -0.56975  -0.56920  -0.56257
 Alpha  occ. eigenvalues --   -0.56233  -0.56090  -0.55710  -0.54874  -0.54814
 Alpha  occ. eigenvalues --   -0.54776  -0.54492  -0.54223  -0.54102  -0.54052
 Alpha  occ. eigenvalues --   -0.53984  -0.53950  -0.53258  -0.53238  -0.53084
 Alpha  occ. eigenvalues --   -0.53030  -0.52907  -0.52702  -0.52681  -0.52644
 Alpha  occ. eigenvalues --   -0.52622  -0.52482  -0.52451  -0.52367  -0.51571
 Alpha  occ. eigenvalues --   -0.51543  -0.51332  -0.51319  -0.51282  -0.51222
 Alpha  occ. eigenvalues --   -0.51168  -0.51127  -0.50971  -0.50802  -0.50623
 Alpha  occ. eigenvalues --   -0.50599  -0.50587  -0.49929  -0.49895  -0.49265
 Alpha  occ. eigenvalues --   -0.49245  -0.49172  -0.49171  -0.49151  -0.49091
 Alpha  occ. eigenvalues --   -0.48889  -0.48026  -0.48012  -0.47883  -0.47539
 Alpha  occ. eigenvalues --   -0.47355  -0.47253  -0.47196  -0.46978  -0.46922
 Alpha  occ. eigenvalues --   -0.46832  -0.46600  -0.46573  -0.46441  -0.46138
 Alpha  occ. eigenvalues --   -0.46094  -0.46042  -0.45554  -0.45087  -0.44908
 Alpha  occ. eigenvalues --   -0.44869  -0.44158  -0.44119  -0.43983  -0.43469
 Alpha  occ. eigenvalues --   -0.43291  -0.43229  -0.43104  -0.43090  -0.43044
 Alpha  occ. eigenvalues --   -0.42716  -0.42704  -0.42670  -0.42574  -0.42567
 Alpha  occ. eigenvalues --   -0.42483  -0.42459  -0.42429  -0.42285  -0.42270
 Alpha  occ. eigenvalues --   -0.42238  -0.42015  -0.41888  -0.41833  -0.41816
 Alpha  occ. eigenvalues --   -0.41195  -0.41170  -0.41097  -0.41033  -0.40571
 Alpha  occ. eigenvalues --   -0.40533  -0.40531  -0.40308  -0.39415  -0.39388
 Alpha  occ. eigenvalues --   -0.36723  -0.32476  -0.28796  -0.24552  -0.24509
 Alpha  occ. eigenvalues --   -0.22907
 Alpha virt. eigenvalues --   -0.09066  -0.08935  -0.08341  -0.08318  -0.06898
 Alpha virt. eigenvalues --   -0.06865  -0.06784  -0.04074  -0.03937  -0.03888
 Alpha virt. eigenvalues --   -0.03611  -0.03396  -0.03333  -0.03152  -0.03038

 Mulliken charges:
               1
     1  Cl  -0.923391
     2  C   -0.083330
     3  C    0.041807
     4  C   -0.079024
     5  C   -0.033618
     6  C   -0.033080
     7  C   -0.050444
     8  H    0.027022
     9  H    0.028133
    10  H    0.040036
    11  H    0.037065
    12  H    0.039278
    13  C   -0.084476
    14  C    0.028967
    15  H    0.015043
    16  H    0.035357
    17  H    0.035263
    18  O   -0.663344
    19  O   -0.661164
    20  O   -0.655584
    21  O   -0.662879
    22  W    1.735640
    23  W    1.675054
    24  W    1.686184
    25  W    1.695773
    26  W    1.675245
    27  W    1.725643
    28  W    1.620418
    29  W    1.684601
    30  O   -0.321090
    31  O   -0.367139
    32  O   -0.366716
    33  O   -0.365141
    34  O   -0.663993
    35  O   -0.670476
    36  O   -0.661165
    37  O   -0.663125
    38  O   -0.366611
    39  O   -0.367143
    40  O   -0.290180
    41  O   -0.366417
    42  O   -0.670058
    43  O   -0.662415
    44  O   -0.659031
    45  O   -0.665061
    46  O   -0.366798
    47  O   -0.320947
    48  O   -0.355782
    49  O   -0.366135
    50  W    1.671860
    51  W    1.676181
    52  W    1.672145
    53  W    1.682943
    54  O   -0.723408
    55  O   -0.705871
    56  O   -0.724965
    57  O   -0.721258
    58  O   -0.704085
    59  O   -0.725967
    60  O   -0.724310
    61  O   -0.721021
    62  O   -0.722856
    63  O   -0.706811
    64  O   -0.721880
    65  O   -0.725751
    66  O   -0.799885
    67  O   -0.799106
    68  O   -0.797466
    69  O   -0.809907
    70  K    0.862178
    71  K    0.861459
    72  K    0.857197
    73  V    1.189811
 Sum of Mulliken charges =  -1.00000

 Dipole moment (field-independent basis, Debye):
    X=             51.7816    Y=            -49.7861    Z=            -38.5997  Tot=             81.5471
 Quadrupole moment (field-independent basis, Debye-Ang):
   XX=          -1073.1306   YY=           -860.3436   ZZ=           -913.1700
   XY=            444.7226   XZ=            464.1949   YZ=           -461.2539

 Normal termination of Gaussian 16 at Sat Jun  1 18:58:56 2024.
