 Gaussian 16, Revision C.01,
 Gaussian 16:  ES64L-G16RevC.01  3-Jul-2019

 ----------------------------------------------------------------------
 # def2svp wb97xd scrf=(smd,solvent=acetonitrile) g09default scf=(xqc,m
 axcycle=64) force guess=read nosymm
 ----------------------------------------------------------------------

 ----------
 Title Card
 ----------
 Symbolic Z-matrix:
 Charge = -1 Multiplicity = 1

                          Input orientation:
 ---------------------------------------------------------------------
 Center     Atomic      Atomic             Coordinates (Angstroms)
 Number     Number       Type             X           Y           Z
 ---------------------------------------------------------------------
      1         17           0       -9.966540    7.824232   10.446741
      2          6           0       -8.308854    4.242189   12.236504
      3          6           0       -9.059925    3.915290   11.092295
      4          6           0      -10.004706    2.880027   11.199402
      5          6           0      -10.189373    2.190779   12.393953
      6          6           0       -9.430095    2.521234   13.517194
      7          6           0       -8.490210    3.550993   13.431096
      8          1           0       -7.577071    5.052302   12.198998
      9          1           0      -10.600107    2.619289   10.320552
     10          1           0      -10.919196    1.379453   12.440862
     11          1           0       -9.557299    1.967730   14.450487
     12          1           0       -7.887619    3.814157   14.304603
     13          6           0       -8.920376    4.617473    9.814621
     14          6           0       -8.090943    5.646390    9.564610
     15          1           0       -9.593720    4.286001    9.016534
     16          1           0       -8.062122    6.119164    8.581488
     17          1           0       -7.386309    6.021471   10.309729
     18          8           0       -1.014583   -1.765676    7.463862
     19          8           0       -8.405949   -1.322630    7.468133
     20          8           0       -7.060894    1.337780   10.486593
     21          8           0       -2.334532   -4.344298   10.558782
     22         74           0       -3.430944    0.743852    6.501368
     23         74           0       -6.009592   -3.822688    6.587568
     24         74           0       -3.636620    0.914072   11.403815
     25         74           0       -5.776348   -3.865427   11.468909
     26         74           0       -2.470276   -2.545845    6.381593
     27         74           0       -6.950065   -0.531304    6.351215
     28         74           0       -6.830557   -0.253306   11.594478
     29         74           0       -2.571284   -2.692637   11.627264
     30          8           0       -3.205555    1.951029    5.344402
     31          8           0       -6.138507   -5.085138    5.458881
     32          8           0       -2.706547    1.769137   12.539145
     33          8           0       -6.698933   -4.679693   12.639662
     34          8           0       -2.699716   -0.866026    5.591528
     35          8           0       -6.716031   -2.267754    5.631546
     36          8           0       -5.323543    0.562699   12.367390
     37          8           0       -4.068372   -3.507541   12.411190
     38          8           0        0.294860   -0.007550    9.280486
     39          8           0       -9.717806   -3.010865    9.339895
     40          8           0       -6.405099    3.413801    8.628865
     41          8           0       -2.962434   -6.446411    8.741318
     42          8           0       -1.815404    0.784893    7.489077
     43          8           0       -7.610981   -3.876352    7.565036
     44          8           0       -4.539394    2.218029   10.422246
     45          8           0       -4.866734   -5.212234   10.519979
     46          8           0       -1.649062   -3.475149    5.220048
     47          8           0       -7.819304    0.269875    5.146557
     48          8           0       -8.035855   -0.183653   12.786893
     49          8           0       -1.342171   -2.794581   12.795996
     50         74           0       -1.266966   -0.515111    8.845303
     51         74           0       -8.158642   -2.510820    8.885722
     52         74           0       -5.935759    1.853092    9.045282
     53         74           0       -3.470369   -4.880668    9.163168
     54          8           0       -4.238753   -3.093224    6.074085
     55          8           0       -5.178148   -0.030297    6.018614
     56          8           0       -6.188239   -2.000345   11.921674
     57          8           0       -3.189138   -0.949158   11.926904
     58          8           0       -4.399112    1.601177    7.848763
     59          8           0       -5.002804   -4.671593    7.932171
     60          8           0       -2.341935    0.597991   10.077601
     61          8           0       -7.068624   -3.605162   10.137661
     62          8           0       -2.578094   -3.869368    7.858335
     63          8           0       -6.850644    0.789112    7.802663
     64          8           0       -7.847883   -1.171655   10.163470
     65          8           0       -1.572360   -1.836279   10.153853
     66          8           0       -3.389496   -1.124624    8.014902
     67          8           0       -6.030687   -1.955522    8.045200
     68          8           0       -5.132112   -0.198268    9.954608
     69          8           0       -4.257010   -2.821035    9.982214
     70         19           0       -3.236301   -6.108224    5.673798
     71         19           0       -0.160983    0.034032   12.341439
     72         19           0       -9.257477   -2.928424   12.399576
     73         23           0       -4.704544   -1.520623    8.995481
 ---------------------------------------------------------------------

 SCF Done:  E(UwB97XD) =  -7327.70037456     A.U. after   50 cycles

 Alpha  occ. eigenvalues --  -19.24505 -18.93668 -18.92584 -18.92531 -13.36410
 Alpha  occ. eigenvalues --  -13.36408 -13.36349 -10.69338 -10.69335 -10.69333
 Alpha  occ. eigenvalues --  -10.69333 -10.69331 -10.69331 -10.69278 -10.69273
 Alpha  occ. eigenvalues --  -10.69271 -10.32922 -10.32357 -10.31772 -10.30884
 Alpha  occ. eigenvalues --  -10.30865 -10.30798 -10.30485 -10.30384  -9.52164
 Alpha  occ. eigenvalues --   -7.27039  -7.26716  -7.26708  -3.21067  -3.21043
 Alpha  occ. eigenvalues --   -3.21038  -3.21034  -3.21009  -3.20996  -3.20987
 Alpha  occ. eigenvalues --   -3.20985  -3.20969  -3.20832  -3.20827  -3.20803
 Alpha  occ. eigenvalues --   -2.78508  -1.85317  -1.85286  -1.85264  -1.85227
 Alpha  occ. eigenvalues --   -1.85108  -1.85066  -1.85051  -1.85037  -1.85022
 Alpha  occ. eigenvalues --   -1.85010  -1.84983  -1.84935  -1.84375  -1.84263
 Alpha  occ. eigenvalues --   -1.84248  -1.84242  -1.84202  -1.84193  -1.84125
 Alpha  occ. eigenvalues --   -1.84110  -1.84083  -1.84082  -1.84051  -1.84045
 Alpha  occ. eigenvalues --   -1.83923  -1.83899  -1.83887  -1.83879  -1.83846
 Alpha  occ. eigenvalues --   -1.83806  -1.83789  -1.83787  -1.83770  -1.83669
 Alpha  occ. eigenvalues --   -1.83668  -1.83654  -1.81701  -1.81370  -1.81342
 Alpha  occ. eigenvalues --   -1.50120  -1.50117  -1.50060  -1.08622  -1.06985
 Alpha  occ. eigenvalues --   -1.06954  -1.06923  -1.06030  -1.06020  -1.05989
 Alpha  occ. eigenvalues --   -1.04592  -1.04580  -1.04568  -1.03981  -1.03958
 Alpha  occ. eigenvalues --   -1.03651  -1.03368  -1.03312  -1.03304  -1.03067
 Alpha  occ. eigenvalues --   -1.03040  -1.02225  -1.02204  -1.02171  -1.02077
 Alpha  occ. eigenvalues --   -1.02039  -1.02010  -1.01945  -1.01918  -1.01804
 Alpha  occ. eigenvalues --   -1.01772  -1.01756  -1.01642  -1.01585  -1.01575
 Alpha  occ. eigenvalues --   -1.01293  -1.00804  -1.00783  -1.00742  -1.00721
 Alpha  occ. eigenvalues --   -0.99935  -0.99863  -0.99796  -0.96076  -0.89246
 Alpha  occ. eigenvalues --   -0.85573  -0.85567  -0.85521  -0.85411  -0.85410
 Alpha  occ. eigenvalues --   -0.85407  -0.85405  -0.85357  -0.85341  -0.84143
 Alpha  occ. eigenvalues --   -0.82337  -0.80712  -0.71841  -0.69503  -0.64999
 Alpha  occ. eigenvalues --   -0.62343  -0.61726  -0.61684  -0.61641  -0.60572
 Alpha  occ. eigenvalues --   -0.59005  -0.58992  -0.58976  -0.58902  -0.58847
 Alpha  occ. eigenvalues --   -0.58777  -0.58763  -0.58718  -0.58572  -0.57333
 Alpha  occ. eigenvalues --   -0.57299  -0.57264  -0.57011  -0.56745  -0.56498
 Alpha  occ. eigenvalues --   -0.56465  -0.56427  -0.56013  -0.55848  -0.55365
 Alpha  occ. eigenvalues --   -0.55358  -0.55321  -0.54346  -0.54225  -0.54188
 Alpha  occ. eigenvalues --   -0.54016  -0.53653  -0.53606  -0.53585  -0.52736
 Alpha  occ. eigenvalues --   -0.52642  -0.52639  -0.52547  -0.52502  -0.51501
 Alpha  occ. eigenvalues --   -0.51483  -0.51477  -0.51360  -0.51314  -0.50673
 Alpha  occ. eigenvalues --   -0.50605  -0.50527  -0.50488  -0.50384  -0.50330
 Alpha  occ. eigenvalues --   -0.50241  -0.50064  -0.50060  -0.50005  -0.49770
 Alpha  occ. eigenvalues --   -0.49725  -0.49670  -0.49493  -0.49458  -0.49303
 Alpha  occ. eigenvalues --   -0.49247  -0.49217  -0.49125  -0.49092  -0.48996
 Alpha  occ. eigenvalues --   -0.48767  -0.48601  -0.48586  -0.48519  -0.47725
 Alpha  occ. eigenvalues --   -0.47708  -0.47114  -0.46505  -0.46034  -0.46021
 Alpha  occ. eigenvalues --   -0.45834  -0.45771  -0.45745  -0.45632  -0.45209
 Alpha  occ. eigenvalues --   -0.45128  -0.45125  -0.44839  -0.44630  -0.44502
 Alpha  occ. eigenvalues --   -0.44472  -0.44454  -0.44270  -0.44262  -0.44239
 Alpha  occ. eigenvalues --   -0.43365  -0.43048  -0.42540  -0.42508  -0.42457
 Alpha  occ. eigenvalues --   -0.42292  -0.42169  -0.42166  -0.42045  -0.41636
 Alpha  occ. eigenvalues --   -0.41610  -0.41568  -0.41034  -0.40997  -0.40813
 Alpha  occ. eigenvalues --   -0.40767  -0.40736  -0.40412  -0.40399  -0.40373
 Alpha  occ. eigenvalues --   -0.40214  -0.40182  -0.40177  -0.40158  -0.39892
 Alpha  occ. eigenvalues --   -0.39332  -0.39246  -0.39219  -0.39154  -0.38993
 Alpha  occ. eigenvalues --   -0.38912  -0.38891  -0.38821  -0.38711  -0.38682
 Alpha  occ. eigenvalues --   -0.38336  -0.38308  -0.38271  -0.37830  -0.37193
 Alpha  occ. eigenvalues --   -0.37179  -0.34452  -0.34426  -0.33534  -0.30121
 Alpha  occ. eigenvalues --   -0.25401
 Alpha virt. eigenvalues --   -0.11567  -0.06244  -0.06226  -0.04776  -0.04728
 Alpha virt. eigenvalues --   -0.04624  -0.01438  -0.01347  -0.01305  -0.01101
 Alpha virt. eigenvalues --   -0.00922  -0.00900  -0.00831  -0.00144  -0.00048

  Beta  occ. eigenvalues -- -197.10373-129.99005-129.99002-129.98955-101.62160
  Beta  occ. eigenvalues --  -22.42834 -19.28493 -19.28484 -19.28451 -19.28386
  Beta  occ. eigenvalues --  -19.28383 -19.28371 -19.28362 -19.28355 -19.28331
  Beta  occ. eigenvalues --  -19.28271 -19.28241 -19.28167 -19.26969 -19.26910
  Beta  occ. eigenvalues --  -19.26908 -19.26894 -19.26882 -19.26881 -19.26864
  Beta  occ. eigenvalues --  -19.26848 -19.26848 -19.26830 -19.26830 -19.26814
  Beta  occ. eigenvalues --  -19.26813 -19.26800 -19.26796 -19.26790 -19.26772
  Beta  occ. eigenvalues --  -19.26771 -19.26741 -19.26731 -19.26719 -19.26715
  Beta  occ. eigenvalues --  -19.26646 -19.26627 -19.24590 -19.24525 -19.24516
  Beta  occ. eigenvalues --  -19.24479 -18.93324 -18.91149 -18.91045 -13.36410
  Beta  occ. eigenvalues --  -13.36408 -13.36349 -10.69338 -10.69335 -10.69333
  Beta  occ. eigenvalues --  -10.69333 -10.69331 -10.69331 -10.69278 -10.69273
  Beta  occ. eigenvalues --  -10.69271 -10.33177 -10.32535 -10.31724 -10.30974
  Beta  occ. eigenvalues --  -10.30970 -10.30886 -10.30435 -10.30332  -9.52612
  Beta  occ. eigenvalues --   -7.28445  -7.27022  -7.27014  -3.21067  -3.21043
  Beta  occ. eigenvalues --   -3.21035  -3.21030  -3.21003  -3.20990  -3.20981
  Beta  occ. eigenvalues --   -3.20979  -3.20963  -3.20832  -3.20825  -3.20798
  Beta  occ. eigenvalues --   -2.74456  -1.85313  -1.85280  -1.85260  -1.85219
  Beta  occ. eigenvalues --   -1.85103  -1.85061  -1.85044  -1.85032  -1.85013
  Beta  occ. eigenvalues --   -1.85001  -1.84979  -1.84926  -1.84372  -1.84261
  Beta  occ. eigenvalues --   -1.84245  -1.84239  -1.84198  -1.84190  -1.84122
  Beta  occ. eigenvalues --   -1.84108  -1.84080  -1.84079  -1.84049  -1.84042
  Beta  occ. eigenvalues --   -1.83921  -1.83896  -1.83885  -1.83876  -1.83844
  Beta  occ. eigenvalues --   -1.83803  -1.83786  -1.83784  -1.83767  -1.83668
  Beta  occ. eigenvalues --   -1.83665  -1.83651  -1.80369  -1.75736  -1.75513
  Beta  occ. eigenvalues --   -1.50120  -1.50117  -1.50060  -1.08605  -1.06964
  Beta  occ. eigenvalues --   -1.06935  -1.06897  -1.06028  -1.06019  -1.05987
  Beta  occ. eigenvalues --   -1.04592  -1.04579  -1.04570  -1.03981  -1.03960
  Beta  occ. eigenvalues --   -1.03585  -1.03338  -1.03280  -1.03270  -1.03066
  Beta  occ. eigenvalues --   -1.03032  -1.02208  -1.02181  -1.02155  -1.02068
  Beta  occ. eigenvalues --   -1.02034  -1.01996  -1.01943  -1.01910  -1.01801
  Beta  occ. eigenvalues --   -1.01769  -1.01752  -1.01644  -1.01582  -1.01560
  Beta  occ. eigenvalues --   -1.01293  -1.00786  -1.00765  -1.00740  -1.00716
  Beta  occ. eigenvalues --   -0.99799  -0.99709  -0.99668  -0.96282  -0.89945
  Beta  occ. eigenvalues --   -0.85573  -0.85567  -0.85521  -0.85411  -0.85410
  Beta  occ. eigenvalues --   -0.85407  -0.85405  -0.85357  -0.85340  -0.84291
  Beta  occ. eigenvalues --   -0.84121  -0.82692  -0.72111  -0.69614  -0.65247
  Beta  occ. eigenvalues --   -0.62343  -0.61725  -0.61684  -0.61641  -0.60762
  Beta  occ. eigenvalues --   -0.59004  -0.58989  -0.58975  -0.58833  -0.58777
  Beta  occ. eigenvalues --   -0.58753  -0.58743  -0.58696  -0.58572  -0.57309
  Beta  occ. eigenvalues --   -0.57146  -0.57098  -0.56999  -0.56898  -0.56498
  Beta  occ. eigenvalues --   -0.56438  -0.56392  -0.55804  -0.55612  -0.55347
  Beta  occ. eigenvalues --   -0.55339  -0.55320  -0.54517  -0.54220  -0.54181
  Beta  occ. eigenvalues --   -0.54007  -0.53630  -0.53583  -0.53539  -0.52782
  Beta  occ. eigenvalues --   -0.52668  -0.52625  -0.52534  -0.52495  -0.51481
  Beta  occ. eigenvalues --   -0.51472  -0.51457  -0.51316  -0.51254  -0.50852
  Beta  occ. eigenvalues --   -0.50497  -0.50470  -0.50418  -0.50328  -0.50292
  Beta  occ. eigenvalues --   -0.50213  -0.50062  -0.50029  -0.49977  -0.49728
  Beta  occ. eigenvalues --   -0.49688  -0.49649  -0.49485  -0.49447  -0.49305
  Beta  occ. eigenvalues --   -0.49231  -0.49212  -0.49095  -0.49080  -0.48975
  Beta  occ. eigenvalues --   -0.48762  -0.48603  -0.48593  -0.48512  -0.47794
  Beta  occ. eigenvalues --   -0.47692  -0.47571  -0.45942  -0.45891  -0.45838
  Beta  occ. eigenvalues --   -0.45779  -0.45689  -0.45576  -0.45210  -0.45161
  Beta  occ. eigenvalues --   -0.45128  -0.45061  -0.44840  -0.44630  -0.44474
  Beta  occ. eigenvalues --   -0.44466  -0.44416  -0.44259  -0.44228  -0.44211
  Beta  occ. eigenvalues --   -0.43357  -0.43142  -0.42514  -0.42464  -0.42415
  Beta  occ. eigenvalues --   -0.42263  -0.42126  -0.42117  -0.42109  -0.41618
  Beta  occ. eigenvalues --   -0.41611  -0.41550  -0.41372  -0.41037  -0.40947
  Beta  occ. eigenvalues --   -0.40745  -0.40717  -0.40666  -0.40392  -0.40384
  Beta  occ. eigenvalues --   -0.40346  -0.40177  -0.40171  -0.40130  -0.39834
  Beta  occ. eigenvalues --   -0.39609  -0.39329  -0.39178  -0.39090  -0.39087
  Beta  occ. eigenvalues --   -0.38888  -0.38855  -0.38803  -0.38692  -0.38660
  Beta  occ. eigenvalues --   -0.38578  -0.38334  -0.38298  -0.38262  -0.37273
  Beta  occ. eigenvalues --   -0.37195  -0.37166  -0.35376  -0.35352  -0.33780
  Beta  occ. eigenvalues --   -0.30675
  Beta virt. eigenvalues --   -0.06243  -0.06226  -0.04776  -0.04727  -0.04623
  Beta virt. eigenvalues --   -0.01435  -0.01342  -0.01300  -0.01095  -0.00917
  Beta virt. eigenvalues --   -0.00896  -0.00829  -0.00145  -0.00039  -0.00020

 Mulliken charges and spin densities:
               1          2
     1  Cl  -0.364643  -0.602129
     2  C   -0.038870  -0.083401
     3  C    0.014670   0.051334
     4  C   -0.036067  -0.080591
     5  C   -0.031774   0.051670
     6  C    0.005910  -0.099358
     7  C   -0.048951   0.050618
     8  H    0.046729   0.003547
     9  H    0.048577   0.003463
    10  H    0.054180  -0.001837
    11  H    0.056051   0.004362
    12  H    0.053312  -0.001772
    13  C    0.001399  -0.221424
    14  C   -0.014958  -0.087876
    15  H    0.073538   0.009502
    16  H    0.095292   0.004403
    17  H    0.093726   0.003830
    18  O   -0.671902  -0.000561
    19  O   -0.669806  -0.000489
    20  O   -0.666402  -0.001933
    21  O   -0.671670  -0.000529
    22  W    1.719364   0.000341
    23  W    1.660903   0.000527
    24  W    1.674230   0.000210
    25  W    1.681987   0.000185
    26  W    1.661151   0.002794
    27  W    1.707583   0.002495
    28  W    1.611882   0.003348
    29  W    1.670083   0.002930
    30  O   -0.350592  -0.000544
    31  O   -0.395429  -0.000588
    32  O   -0.394875  -0.000625
    33  O   -0.393638  -0.000578
    34  O   -0.672130  -0.000288
    35  O   -0.677576   0.000002
    36  O   -0.669843  -0.000096
    37  O   -0.671918  -0.000191
    38  O   -0.396215   0.002098
    39  O   -0.396970   0.002122
    40  O   -0.338828  -0.001500
    41  O   -0.396287   0.002121
    42  O   -0.677395   0.000064
    43  O   -0.670881   0.000179
    44  O   -0.667485   0.000326
    45  O   -0.673312   0.000114
    46  O   -0.396496   0.002270
    47  O   -0.352067   0.002149
    48  O   -0.388174   0.001715
    49  O   -0.395963   0.002341
    50  W    1.657499   0.002894
    51  W    1.661813   0.002774
    52  W    1.669913   0.003877
    53  W    1.668123   0.002738
    54  O   -0.721297   0.000134
    55  O   -0.703992   0.000027
    56  O   -0.721394   0.000208
    57  O   -0.719190   0.000093
    58  O   -0.701594  -0.000035
    59  O   -0.723171   0.000175
    60  O   -0.721754   0.000232
    61  O   -0.718593   0.000233
    62  O   -0.721336  -0.000167
    63  O   -0.705043   0.000007
    64  O   -0.721159  -0.000184
    65  O   -0.723817  -0.000196
    66  O   -0.882057   0.005394
    67  O   -0.882003   0.007771
    68  O   -0.880539   0.007639
    69  O   -0.888861   0.007110
    70  K    0.848422   0.000212
    71  K    0.847855   0.000236
    72  K    0.843117   0.000264
    73  V    1.199605   0.933814
 Sum of Mulliken charges =  -1.00000   0.00000

 Dipole moment (field-independent basis, Debye):
    X=             29.4319    Y=            -13.5417    Z=            -30.9766  Tot=             44.8237
 Quadrupole moment (field-independent basis, Debye-Ang):
   XX=           -783.4617   YY=           -699.7215   ZZ=           -788.0060
   XY=            130.8241   XZ=            190.2733   YZ=            -92.3015

 Normal termination of Gaussian 16 at Sat Jun  1 18:47:42 2024.
