 Gaussian 16, Revision C.01,
 Gaussian 16:  ES64L-G16RevC.01  3-Jul-2019

 ----------------------------------------------------------------------
 # def2svp wb97xd scrf=(smd,solvent=acetonitrile) g09default scf=(xqc,m
 axcycle=64) force guess=read nosymm
 ----------------------------------------------------------------------

 ----------
 Title Card
 ----------
 Symbolic Z-matrix:
 Charge = -1 Multiplicity = 1

                          Input orientation:
 ---------------------------------------------------------------------
 Center     Atomic      Atomic             Coordinates (Angstroms)
 Number     Number       Type             X           Y           Z
 ---------------------------------------------------------------------
      1         17           0       -9.971026    7.840978   10.451414
      2          6           0       -8.307910    4.241456   12.235819
      3          6           0       -9.060934    3.914931   11.092304
      4          6           0      -10.004224    2.878301   11.199231
      5          6           0      -10.189047    2.189943   12.393691
      6          6           0       -9.430241    2.521224   13.516843
      7          6           0       -8.489637    3.550327   13.430970
      8          1           0       -7.576572    5.051263   12.198573
      9          1           0      -10.600747    2.617113   10.320621
     10          1           0      -10.920585    1.379547   12.442453
     11          1           0       -9.557489    1.968624   14.450713
     12          1           0       -7.888517    3.815101   14.304638
     13          6           0       -8.922738    4.619911    9.815658
     14          6           0       -8.096545    5.649605    9.565951
     15          1           0       -9.591264    4.281565    9.015721
     16          1           0       -8.062385    6.117583    8.580271
     17          1           0       -7.386023    6.020376   10.308782
     18          8           0       -1.013499   -1.765557    7.463403
     19          8           0       -8.407343   -1.322692    7.467967
     20          8           0       -7.060956    1.338975   10.486493
     21          8           0       -2.333611   -4.345504   10.558909
     22         74           0       -3.429532    0.743515    6.500160
     23         74           0       -6.010243   -3.823501    6.586877
     24         74           0       -3.636290    0.914737   11.404814
     25         74           0       -5.776604   -3.866303   11.469625
     26         74           0       -2.470399   -2.545581    6.381566
     27         74           0       -6.949385   -0.532211    6.350883
     28         74           0       -6.829708   -0.252705   11.594301
     29         74           0       -2.571782   -2.693179   11.627610
     30          8           0       -3.204462    1.949849    5.342511
     31          8           0       -6.139445   -5.084216    5.457140
     32          8           0       -2.707607    1.769479   12.541154
     33          8           0       -6.697688   -4.680483   12.641138
     34          8           0       -2.699562   -0.866295    5.589259
     35          8           0       -6.716183   -2.268213    5.629562
     36          8           0       -5.323599    0.562874   12.369034
     37          8           0       -4.068141   -3.507766   12.412663
     38          8           0        0.294689   -0.006857    9.279019
     39          8           0       -9.717693   -3.011484    9.338027
     40          8           0       -6.401994    3.414305    8.628465
     41          8           0       -2.962839   -6.446689    8.742621
     42          8           0       -1.814228    0.785921    7.488221
     43          8           0       -7.611532   -3.877713    7.564304
     44          8           0       -4.537732    2.218938   10.422927
     45          8           0       -4.867321   -5.213613   10.520629
     46          8           0       -1.647403   -3.474347    5.220717
     47          8           0       -7.820668    0.269173    5.147920
     48          8           0       -8.036157   -0.181765   12.785695
     49          8           0       -1.341868   -2.796731   12.795374
     50         74           0       -1.267331   -0.515261    8.844829
     51         74           0       -8.158090   -2.510485    8.884953
     52         74           0       -5.934438    1.852363    9.045323
     53         74           0       -3.470496   -4.880780    9.163891
     54          8           0       -4.238352   -3.093624    6.073052
     55          8           0       -5.178529   -0.029395    6.016944
     56          8           0       -6.188957   -2.000614   11.922712
     57          8           0       -3.187990   -0.949215   11.928380
     58          8           0       -4.397585    1.600508    7.847803
     59          8           0       -5.003350   -4.672950    7.930696
     60          8           0       -2.341340    0.599140   10.078849
     61          8           0       -7.069021   -3.606558   10.138855
     62          8           0       -2.578761   -3.870128    7.858165
     63          8           0       -6.849285    0.789227    7.802525
     64          8           0       -7.847755   -1.172497   10.163392
     65          8           0       -1.572409   -1.835440   10.153977
     66          8           0       -3.388718   -1.125866    8.015359
     67          8           0       -6.031469   -1.954349    8.045323
     68          8           0       -5.133704   -0.198475    9.953826
     69          8           0       -4.255594   -2.821231    9.981490
     70         19           0       -3.235675   -6.110916    5.671822
     71         19           0       -0.158485    0.035302   12.343438
     72         19           0       -9.260252   -2.928737   12.402111
     73         23           0       -4.704523   -1.520638    8.995518
 ---------------------------------------------------------------------

 SCF Done:  E(RwB97XD) =  -7327.69932021     A.U. after   16 cycles

 Alpha  occ. eigenvalues -- -197.29024-130.00042-130.00006-129.99916-101.47612
 Alpha  occ. eigenvalues --  -22.62191 -19.33488 -19.33478 -19.33474 -19.33458
 Alpha  occ. eigenvalues --  -19.30712 -19.30682 -19.30678 -19.30669 -19.30658
 Alpha  occ. eigenvalues --  -19.30641 -19.30625 -19.30592 -19.30493 -19.30321
 Alpha  occ. eigenvalues --  -19.30315 -19.30039 -19.29326 -19.29322 -19.29294
 Alpha  occ. eigenvalues --  -19.29290 -19.29288 -19.29281 -19.29268 -19.29216
 Alpha  occ. eigenvalues --  -19.29177 -19.29155 -19.29153 -19.29133 -19.29109
 Alpha  occ. eigenvalues --  -19.29103 -19.29101 -19.29095 -19.29079 -19.29066
 Alpha  occ. eigenvalues --  -19.29041 -19.29023 -19.28977 -19.28943 -19.28932
 Alpha  occ. eigenvalues --  -19.28705 -19.11142 -19.11133 -19.11128 -13.37443
 Alpha  occ. eigenvalues --  -13.37406 -13.37304 -10.70372 -10.70365 -10.70365
 Alpha  occ. eigenvalues --  -10.70336 -10.70328 -10.70328 -10.70236 -10.70228
 Alpha  occ. eigenvalues --  -10.70226 -10.29738 -10.29306 -10.29231 -10.29032
 Alpha  occ. eigenvalues --  -10.28917 -10.28870 -10.27968 -10.27302  -9.38074
 Alpha  occ. eigenvalues --   -7.12896  -7.12856  -7.12852  -3.23292  -3.23275
 Alpha  occ. eigenvalues --   -3.23265  -3.23264  -3.23254  -3.23249  -3.23196
 Alpha  occ. eigenvalues --   -3.23194  -3.23133  -3.22910  -3.22901  -3.22616
 Alpha  occ. eigenvalues --   -2.91553  -1.93967  -1.93939  -1.93923  -1.87709
 Alpha  occ. eigenvalues --   -1.87635  -1.87626  -1.87560  -1.87474  -1.87464
 Alpha  occ. eigenvalues --   -1.87438  -1.87416  -1.87359  -1.87231  -1.87201
 Alpha  occ. eigenvalues --   -1.86974  -1.86605  -1.86485  -1.86477  -1.86458
 Alpha  occ. eigenvalues --   -1.86428  -1.86385  -1.86312  -1.86292  -1.86277
 Alpha  occ. eigenvalues --   -1.86264  -1.86234  -1.86198  -1.86128  -1.86095
 Alpha  occ. eigenvalues --   -1.86095  -1.86064  -1.86025  -1.85964  -1.85947
 Alpha  occ. eigenvalues --   -1.85884  -1.85848  -1.85757  -1.85605  -1.85527
 Alpha  occ. eigenvalues --   -1.51136  -1.51100  -1.51000  -1.12959  -1.11185
 Alpha  occ. eigenvalues --   -1.11079  -1.11076  -1.08931  -1.08523  -1.08481
 Alpha  occ. eigenvalues --   -1.08303  -1.07523  -1.07459  -1.07433  -1.06891
 Alpha  occ. eigenvalues --   -1.06871  -1.06826  -1.06294  -1.06250  -1.05328
 Alpha  occ. eigenvalues --   -1.05313  -1.04950  -1.04943  -1.04900  -1.04205
 Alpha  occ. eigenvalues --   -1.04197  -1.04169  -1.04024  -1.04014  -1.03997
 Alpha  occ. eigenvalues --   -1.03936  -1.03878  -1.03867  -1.03748  -1.03694
 Alpha  occ. eigenvalues --   -1.03615  -1.03532  -1.03275  -1.03249  -1.03119
 Alpha  occ. eigenvalues --   -1.03100  -1.03044  -1.02885  -0.94308  -0.86608
 Alpha  occ. eigenvalues --   -0.86575  -0.86482  -0.86423  -0.86416  -0.86411
 Alpha  occ. eigenvalues --   -0.86378  -0.86374  -0.86283  -0.86268  -0.82739
 Alpha  occ. eigenvalues --   -0.79700  -0.70793  -0.69678  -0.67934  -0.64584
 Alpha  occ. eigenvalues --   -0.63954  -0.63899  -0.63869  -0.63219  -0.63199
 Alpha  occ. eigenvalues --   -0.63114  -0.62933  -0.62620  -0.62566  -0.61876
 Alpha  occ. eigenvalues --   -0.61572  -0.61556  -0.61456  -0.61225  -0.61217
 Alpha  occ. eigenvalues --   -0.61164  -0.60403  -0.59454  -0.59421  -0.59412
 Alpha  occ. eigenvalues --   -0.59354  -0.59339  -0.58610  -0.57986  -0.57949
 Alpha  occ. eigenvalues --   -0.57886  -0.57003  -0.56980  -0.56928  -0.56260
 Alpha  occ. eigenvalues --   -0.56233  -0.56091  -0.55713  -0.54871  -0.54814
 Alpha  occ. eigenvalues --   -0.54771  -0.54504  -0.54222  -0.54100  -0.54052
 Alpha  occ. eigenvalues --   -0.54000  -0.53949  -0.53248  -0.53222  -0.53079
 Alpha  occ. eigenvalues --   -0.53019  -0.52901  -0.52700  -0.52679  -0.52640
 Alpha  occ. eigenvalues --   -0.52611  -0.52479  -0.52439  -0.52377  -0.51583
 Alpha  occ. eigenvalues --   -0.51553  -0.51345  -0.51330  -0.51297  -0.51236
 Alpha  occ. eigenvalues --   -0.51180  -0.51137  -0.50972  -0.50791  -0.50614
 Alpha  occ. eigenvalues --   -0.50589  -0.50577  -0.49924  -0.49893  -0.49272
 Alpha  occ. eigenvalues --   -0.49247  -0.49189  -0.49176  -0.49158  -0.49089
 Alpha  occ. eigenvalues --   -0.48891  -0.48044  -0.48020  -0.47890  -0.47571
 Alpha  occ. eigenvalues --   -0.47359  -0.47255  -0.47200  -0.46981  -0.46928
 Alpha  occ. eigenvalues --   -0.46838  -0.46608  -0.46580  -0.46440  -0.46153
 Alpha  occ. eigenvalues --   -0.46106  -0.46053  -0.45560  -0.45089  -0.44912
 Alpha  occ. eigenvalues --   -0.44871  -0.44163  -0.44126  -0.43988  -0.43465
 Alpha  occ. eigenvalues --   -0.43287  -0.43226  -0.43109  -0.43089  -0.43045
 Alpha  occ. eigenvalues --   -0.42724  -0.42712  -0.42674  -0.42581  -0.42574
 Alpha  occ. eigenvalues --   -0.42490  -0.42456  -0.42432  -0.42285  -0.42271
 Alpha  occ. eigenvalues --   -0.42238  -0.42017  -0.41892  -0.41835  -0.41818
 Alpha  occ. eigenvalues --   -0.41196  -0.41169  -0.41106  -0.41032  -0.40568
 Alpha  occ. eigenvalues --   -0.40532  -0.40529  -0.40302  -0.39417  -0.39389
 Alpha  occ. eigenvalues --   -0.36747  -0.32482  -0.28806  -0.24542  -0.24500
 Alpha  occ. eigenvalues --   -0.22941
 Alpha virt. eigenvalues --   -0.09116  -0.08965  -0.08340  -0.08313  -0.06902
 Alpha virt. eigenvalues --   -0.06866  -0.06781  -0.04122  -0.03959  -0.03911
 Alpha virt. eigenvalues --   -0.03628  -0.03419  -0.03353  -0.03167  -0.03046

 Mulliken charges:
               1
     1  Cl  -0.924541
     2  C   -0.082688
     3  C    0.041378
     4  C   -0.078700
     5  C   -0.033747
     6  C   -0.032897
     7  C   -0.050552
     8  H    0.026964
     9  H    0.028498
    10  H    0.040307
    11  H    0.037108
    12  H    0.039205
    13  C   -0.084675
    14  C    0.027175
    15  H    0.015575
    16  H    0.036019
    17  H    0.035779
    18  O   -0.663354
    19  O   -0.661003
    20  O   -0.655531
    21  O   -0.662829
    22  W    1.735000
    23  W    1.673880
    24  W    1.684982
    25  W    1.694606
    26  W    1.675056
    27  W    1.725521
    28  W    1.620495
    29  W    1.684410
    30  O   -0.320748
    31  O   -0.366467
    32  O   -0.366213
    33  O   -0.364585
    34  O   -0.664032
    35  O   -0.670507
    36  O   -0.661036
    37  O   -0.663016
    38  O   -0.366535
    39  O   -0.367256
    40  O   -0.290860
    41  O   -0.366171
    42  O   -0.670049
    43  O   -0.662385
    44  O   -0.658842
    45  O   -0.665139
    46  O   -0.366617
    47  O   -0.320768
    48  O   -0.355601
    49  O   -0.365893
    50  W    1.671719
    51  W    1.675943
    52  W    1.672548
    53  W    1.682967
    54  O   -0.723321
    55  O   -0.705698
    56  O   -0.725097
    57  O   -0.721279
    58  O   -0.704099
    59  O   -0.725938
    60  O   -0.724268
    61  O   -0.720852
    62  O   -0.722857
    63  O   -0.706623
    64  O   -0.721746
    65  O   -0.725661
    66  O   -0.799957
    67  O   -0.799306
    68  O   -0.797521
    69  O   -0.809668
    70  K    0.862603
    71  K    0.861881
    72  K    0.857703
    73  V    1.189809
 Sum of Mulliken charges =  -1.00000

 Dipole moment (field-independent basis, Debye):
    X=             51.8331    Y=            -49.9359    Z=            -38.5844  Tot=             81.6640
 Quadrupole moment (field-independent basis, Debye-Ang):
   XX=          -1073.8266   YY=           -861.7685   ZZ=           -912.6589
   XY=            446.2941   XZ=            464.6226   YZ=           -462.7808

 Normal termination of Gaussian 16 at Sat Jun  1 19:39:07 2024.
