 Gaussian 16, Revision C.01,
 Gaussian 16:  ES64L-G16RevC.01  3-Jul-2019

 ----------------------------------------------------------------------
 # def2svp wb97xd scrf=(smd,solvent=acetonitrile) g09default scf=(xqc,m
 axcycle=64) force guess=read nosymm
 ----------------------------------------------------------------------

 ----------
 Title Card
 ----------
 Symbolic Z-matrix:
 Charge = -1 Multiplicity = 1

                          Input orientation:
 ---------------------------------------------------------------------
 Center     Atomic      Atomic             Coordinates (Angstroms)
 Number     Number       Type             X           Y           Z
 ---------------------------------------------------------------------
      1         17           0       -9.971026    7.840978   10.451414
      2          6           0       -8.307910    4.241456   12.235819
      3          6           0       -9.060934    3.914931   11.092304
      4          6           0      -10.004224    2.878301   11.199231
      5          6           0      -10.189047    2.189943   12.393691
      6          6           0       -9.430241    2.521224   13.516843
      7          6           0       -8.489637    3.550327   13.430970
      8          1           0       -7.576572    5.051263   12.198573
      9          1           0      -10.600747    2.617113   10.320621
     10          1           0      -10.920585    1.379547   12.442453
     11          1           0       -9.557489    1.968624   14.450713
     12          1           0       -7.888517    3.815101   14.304638
     13          6           0       -8.922738    4.619911    9.815658
     14          6           0       -8.096545    5.649605    9.565951
     15          1           0       -9.591264    4.281565    9.015721
     16          1           0       -8.062385    6.117583    8.580271
     17          1           0       -7.386023    6.020376   10.308782
     18          8           0       -1.013499   -1.765557    7.463403
     19          8           0       -8.407343   -1.322692    7.467967
     20          8           0       -7.060956    1.338975   10.486493
     21          8           0       -2.333611   -4.345504   10.558909
     22         74           0       -3.429532    0.743515    6.500160
     23         74           0       -6.010243   -3.823501    6.586877
     24         74           0       -3.636290    0.914737   11.404814
     25         74           0       -5.776604   -3.866303   11.469625
     26         74           0       -2.470399   -2.545581    6.381566
     27         74           0       -6.949385   -0.532211    6.350883
     28         74           0       -6.829708   -0.252705   11.594301
     29         74           0       -2.571782   -2.693179   11.627610
     30          8           0       -3.204462    1.949849    5.342511
     31          8           0       -6.139445   -5.084216    5.457140
     32          8           0       -2.707607    1.769479   12.541154
     33          8           0       -6.697688   -4.680483   12.641138
     34          8           0       -2.699562   -0.866295    5.589259
     35          8           0       -6.716183   -2.268213    5.629562
     36          8           0       -5.323599    0.562874   12.369034
     37          8           0       -4.068141   -3.507766   12.412663
     38          8           0        0.294689   -0.006857    9.279019
     39          8           0       -9.717693   -3.011484    9.338027
     40          8           0       -6.401994    3.414305    8.628465
     41          8           0       -2.962839   -6.446689    8.742621
     42          8           0       -1.814228    0.785921    7.488221
     43          8           0       -7.611532   -3.877713    7.564304
     44          8           0       -4.537732    2.218938   10.422927
     45          8           0       -4.867321   -5.213613   10.520629
     46          8           0       -1.647403   -3.474347    5.220717
     47          8           0       -7.820668    0.269173    5.147920
     48          8           0       -8.036157   -0.181765   12.785695
     49          8           0       -1.341868   -2.796731   12.795374
     50         74           0       -1.267331   -0.515261    8.844829
     51         74           0       -8.158090   -2.510485    8.884953
     52         74           0       -5.934438    1.852363    9.045323
     53         74           0       -3.470496   -4.880780    9.163891
     54          8           0       -4.238352   -3.093624    6.073052
     55          8           0       -5.178529   -0.029395    6.016944
     56          8           0       -6.188957   -2.000614   11.922712
     57          8           0       -3.187990   -0.949215   11.928380
     58          8           0       -4.397585    1.600508    7.847803
     59          8           0       -5.003350   -4.672950    7.930696
     60          8           0       -2.341340    0.599140   10.078849
     61          8           0       -7.069021   -3.606558   10.138855
     62          8           0       -2.578761   -3.870128    7.858165
     63          8           0       -6.849285    0.789227    7.802525
     64          8           0       -7.847755   -1.172497   10.163392
     65          8           0       -1.572409   -1.835440   10.153977
     66          8           0       -3.388718   -1.125866    8.015359
     67          8           0       -6.031469   -1.954349    8.045323
     68          8           0       -5.133704   -0.198475    9.953826
     69          8           0       -4.255594   -2.821231    9.981490
     70         19           0       -3.235675   -6.110916    5.671822
     71         19           0       -0.158485    0.035302   12.343438
     72         19           0       -9.260252   -2.928737   12.402111
     73         23           0       -4.704523   -1.520638    8.995518
 ---------------------------------------------------------------------

 SCF Done:  E(UwB97XD) =  -7327.70050474     A.U. after   39 cycles

 Alpha  occ. eigenvalues --  -19.24544 -18.93713 -18.92629 -18.92577 -13.36424
 Alpha  occ. eigenvalues --  -13.36423 -13.36363 -10.69351 -10.69350 -10.69347
 Alpha  occ. eigenvalues --  -10.69346 -10.69345 -10.69345 -10.69292 -10.69287
 Alpha  occ. eigenvalues --  -10.69285 -10.32888 -10.32313 -10.31771 -10.30880
 Alpha  occ. eigenvalues --  -10.30857 -10.30796 -10.30481 -10.30380  -9.52251
 Alpha  occ. eigenvalues --   -7.27127  -7.26800  -7.26792  -3.21073  -3.21044
 Alpha  occ. eigenvalues --   -3.21043  -3.21038  -3.21011  -3.20999  -3.20989
 Alpha  occ. eigenvalues --   -3.20982  -3.20974  -3.20839  -3.20832  -3.20806
 Alpha  occ. eigenvalues --   -2.78549  -1.85324  -1.85292  -1.85269  -1.85231
 Alpha  occ. eigenvalues --   -1.85115  -1.85072  -1.85050  -1.85035  -1.85024
 Alpha  occ. eigenvalues --   -1.85012  -1.84989  -1.84938  -1.84375  -1.84263
 Alpha  occ. eigenvalues --   -1.84248  -1.84243  -1.84203  -1.84193  -1.84127
 Alpha  occ. eigenvalues --   -1.84111  -1.84084  -1.84082  -1.84053  -1.84045
 Alpha  occ. eigenvalues --   -1.83926  -1.83899  -1.83888  -1.83880  -1.83848
 Alpha  occ. eigenvalues --   -1.83807  -1.83789  -1.83788  -1.83771  -1.83672
 Alpha  occ. eigenvalues --   -1.83670  -1.83655  -1.81742  -1.81409  -1.81382
 Alpha  occ. eigenvalues --   -1.50132  -1.50130  -1.50072  -1.08614  -1.06979
 Alpha  occ. eigenvalues --   -1.06946  -1.06917  -1.06023  -1.06012  -1.05981
 Alpha  occ. eigenvalues --   -1.04585  -1.04574  -1.04562  -1.03975  -1.03952
 Alpha  occ. eigenvalues --   -1.03669  -1.03369  -1.03312  -1.03304  -1.03062
 Alpha  occ. eigenvalues --   -1.03033  -1.02234  -1.02210  -1.02175  -1.02078
 Alpha  occ. eigenvalues --   -1.02041  -1.02007  -1.01943  -1.01918  -1.01803
 Alpha  occ. eigenvalues --   -1.01769  -1.01753  -1.01637  -1.01588  -1.01575
 Alpha  occ. eigenvalues --   -1.01290  -1.00814  -1.00780  -1.00737  -1.00718
 Alpha  occ. eigenvalues --   -0.99956  -0.99888  -0.99818  -0.96067  -0.89243
 Alpha  occ. eigenvalues --   -0.85583  -0.85578  -0.85530  -0.85423  -0.85422
 Alpha  occ. eigenvalues --   -0.85419  -0.85418  -0.85369  -0.85352  -0.84141
 Alpha  occ. eigenvalues --   -0.82331  -0.80768  -0.71827  -0.69495  -0.64980
 Alpha  occ. eigenvalues --   -0.62328  -0.61715  -0.61673  -0.61630  -0.60556
 Alpha  occ. eigenvalues --   -0.58990  -0.58976  -0.58964  -0.58894  -0.58838
 Alpha  occ. eigenvalues --   -0.58763  -0.58750  -0.58704  -0.58561  -0.57340
 Alpha  occ. eigenvalues --   -0.57302  -0.57272  -0.57010  -0.56736  -0.56498
 Alpha  occ. eigenvalues --   -0.56463  -0.56424  -0.56018  -0.55855  -0.55359
 Alpha  occ. eigenvalues --   -0.55353  -0.55315  -0.54334  -0.54220  -0.54186
 Alpha  occ. eigenvalues --   -0.54013  -0.53655  -0.53609  -0.53587  -0.52730
 Alpha  occ. eigenvalues --   -0.52635  -0.52631  -0.52540  -0.52494  -0.51495
 Alpha  occ. eigenvalues --   -0.51478  -0.51469  -0.51361  -0.51308  -0.50678
 Alpha  occ. eigenvalues --   -0.50599  -0.50529  -0.50486  -0.50383  -0.50322
 Alpha  occ. eigenvalues --   -0.50240  -0.50058  -0.50058  -0.50003  -0.49767
 Alpha  occ. eigenvalues --   -0.49713  -0.49668  -0.49501  -0.49466  -0.49314
 Alpha  occ. eigenvalues --   -0.49256  -0.49224  -0.49131  -0.49092  -0.48996
 Alpha  occ. eigenvalues --   -0.48755  -0.48592  -0.48574  -0.48509  -0.47720
 Alpha  occ. eigenvalues --   -0.47703  -0.47112  -0.46506  -0.46045  -0.46030
 Alpha  occ. eigenvalues --   -0.45854  -0.45776  -0.45711  -0.45630  -0.45209
 Alpha  occ. eigenvalues --   -0.45127  -0.45123  -0.44840  -0.44633  -0.44508
 Alpha  occ. eigenvalues --   -0.44479  -0.44459  -0.44273  -0.44268  -0.44247
 Alpha  occ. eigenvalues --   -0.43374  -0.43029  -0.42546  -0.42514  -0.42461
 Alpha  occ. eigenvalues --   -0.42300  -0.42175  -0.42169  -0.42038  -0.41639
 Alpha  occ. eigenvalues --   -0.41613  -0.41569  -0.41037  -0.40999  -0.40809
 Alpha  occ. eigenvalues --   -0.40765  -0.40739  -0.40416  -0.40406  -0.40377
 Alpha  occ. eigenvalues --   -0.40214  -0.40182  -0.40172  -0.40155  -0.39888
 Alpha  occ. eigenvalues --   -0.39341  -0.39261  -0.39233  -0.39158  -0.39010
 Alpha  occ. eigenvalues --   -0.38921  -0.38896  -0.38825  -0.38726  -0.38692
 Alpha  occ. eigenvalues --   -0.38334  -0.38306  -0.38269  -0.37839  -0.37193
 Alpha  occ. eigenvalues --   -0.37181  -0.34509  -0.34483  -0.33534  -0.30102
 Alpha  occ. eigenvalues --   -0.25452
 Alpha virt. eigenvalues --   -0.11642  -0.06241  -0.06221  -0.04779  -0.04727
 Alpha virt. eigenvalues --   -0.04619  -0.01453  -0.01360  -0.01316  -0.01102
 Alpha virt. eigenvalues --   -0.00926  -0.00902  -0.00836  -0.00149  -0.00057

  Beta  occ. eigenvalues -- -197.10419-129.99017-129.99016-129.98969-101.62249
  Beta  occ. eigenvalues --  -22.42879 -19.28509 -19.28500 -19.28465 -19.28389
  Beta  occ. eigenvalues --  -19.28381 -19.28373 -19.28358 -19.28350 -19.28333
  Beta  occ. eigenvalues --  -19.28261 -19.28255 -19.28171 -19.26965 -19.26911
  Beta  occ. eigenvalues --  -19.26908 -19.26905 -19.26879 -19.26877 -19.26867
  Beta  occ. eigenvalues --  -19.26857 -19.26843 -19.26833 -19.26829 -19.26816
  Beta  occ. eigenvalues --  -19.26811 -19.26803 -19.26793 -19.26792 -19.26783
  Beta  occ. eigenvalues --  -19.26776 -19.26750 -19.26728 -19.26723 -19.26719
  Beta  occ. eigenvalues --  -19.26654 -19.26632 -19.24625 -19.24564 -19.24563
  Beta  occ. eigenvalues --  -19.24517 -18.93369 -18.91193 -18.91093 -13.36424
  Beta  occ. eigenvalues --  -13.36423 -13.36363 -10.69351 -10.69350 -10.69347
  Beta  occ. eigenvalues --  -10.69346 -10.69345 -10.69345 -10.69292 -10.69287
  Beta  occ. eigenvalues --  -10.69285 -10.33140 -10.32489 -10.31723 -10.30969
  Beta  occ. eigenvalues --  -10.30963 -10.30883 -10.30430 -10.30329  -9.52701
  Beta  occ. eigenvalues --   -7.28541  -7.27108  -7.27100  -3.21073  -3.21044
  Beta  occ. eigenvalues --   -3.21038  -3.21036  -3.21005  -3.20993  -3.20983
  Beta  occ. eigenvalues --   -3.20975  -3.20968  -3.20838  -3.20829  -3.20801
  Beta  occ. eigenvalues --   -2.74497  -1.85320  -1.85287  -1.85266  -1.85223
  Beta  occ. eigenvalues --   -1.85110  -1.85067  -1.85043  -1.85029  -1.85015
  Beta  occ. eigenvalues --   -1.85004  -1.84985  -1.84929  -1.84373  -1.84261
  Beta  occ. eigenvalues --   -1.84245  -1.84240  -1.84199  -1.84190  -1.84124
  Beta  occ. eigenvalues --   -1.84109  -1.84081  -1.84078  -1.84050  -1.84041
  Beta  occ. eigenvalues --   -1.83923  -1.83896  -1.83885  -1.83877  -1.83845
  Beta  occ. eigenvalues --   -1.83804  -1.83786  -1.83786  -1.83768  -1.83671
  Beta  occ. eigenvalues --   -1.83667  -1.83653  -1.80411  -1.75771  -1.75555
  Beta  occ. eigenvalues --   -1.50132  -1.50130  -1.50072  -1.08597  -1.06959
  Beta  occ. eigenvalues --   -1.06927  -1.06891  -1.06021  -1.06010  -1.05979
  Beta  occ. eigenvalues --   -1.04586  -1.04572  -1.04564  -1.03974  -1.03954
  Beta  occ. eigenvalues --   -1.03602  -1.03338  -1.03279  -1.03269  -1.03060
  Beta  occ. eigenvalues --   -1.03026  -1.02217  -1.02187  -1.02159  -1.02068
  Beta  occ. eigenvalues --   -1.02035  -1.01993  -1.01939  -1.01909  -1.01799
  Beta  occ. eigenvalues --   -1.01766  -1.01749  -1.01638  -1.01586  -1.01559
  Beta  occ. eigenvalues --   -1.01290  -1.00783  -1.00771  -1.00736  -1.00715
  Beta  occ. eigenvalues --   -0.99821  -0.99735  -0.99692  -0.96271  -0.89934
  Beta  occ. eigenvalues --   -0.85583  -0.85578  -0.85530  -0.85423  -0.85422
  Beta  occ. eigenvalues --   -0.85419  -0.85418  -0.85369  -0.85352  -0.84314
  Beta  occ. eigenvalues --   -0.84166  -0.82692  -0.72093  -0.69605  -0.65225
  Beta  occ. eigenvalues --   -0.62328  -0.61714  -0.61672  -0.61630  -0.60744
  Beta  occ. eigenvalues --   -0.58989  -0.58973  -0.58963  -0.58824  -0.58764
  Beta  occ. eigenvalues --   -0.58741  -0.58730  -0.58683  -0.58561  -0.57311
  Beta  occ. eigenvalues --   -0.57153  -0.57105  -0.56994  -0.56891  -0.56499
  Beta  occ. eigenvalues --   -0.56435  -0.56389  -0.55811  -0.55615  -0.55341
  Beta  occ. eigenvalues --   -0.55334  -0.55314  -0.54503  -0.54215  -0.54178
  Beta  occ. eigenvalues --   -0.54004  -0.53631  -0.53586  -0.53542  -0.52771
  Beta  occ. eigenvalues --   -0.52664  -0.52617  -0.52526  -0.52486  -0.51477
  Beta  occ. eigenvalues --   -0.51464  -0.51448  -0.51310  -0.51246  -0.50856
  Beta  occ. eigenvalues --   -0.50496  -0.50469  -0.50416  -0.50326  -0.50284
  Beta  occ. eigenvalues --   -0.50211  -0.50057  -0.50026  -0.49975  -0.49721
  Beta  occ. eigenvalues --   -0.49681  -0.49647  -0.49493  -0.49455  -0.49316
  Beta  occ. eigenvalues --   -0.49237  -0.49221  -0.49097  -0.49080  -0.48974
  Beta  occ. eigenvalues --   -0.48750  -0.48592  -0.48584  -0.48501  -0.47788
  Beta  occ. eigenvalues --   -0.47687  -0.47566  -0.45928  -0.45899  -0.45824
  Beta  occ. eigenvalues --   -0.45792  -0.45696  -0.45584  -0.45211  -0.45163
  Beta  occ. eigenvalues --   -0.45126  -0.45062  -0.44840  -0.44633  -0.44482
  Beta  occ. eigenvalues --   -0.44470  -0.44419  -0.44266  -0.44233  -0.44217
  Beta  occ. eigenvalues --   -0.43367  -0.43122  -0.42518  -0.42473  -0.42418
  Beta  occ. eigenvalues --   -0.42266  -0.42132  -0.42122  -0.42103  -0.41619
  Beta  occ. eigenvalues --   -0.41613  -0.41553  -0.41376  -0.41040  -0.40948
  Beta  occ. eigenvalues --   -0.40748  -0.40718  -0.40665  -0.40398  -0.40392
  Beta  occ. eigenvalues --   -0.40349  -0.40172  -0.40165  -0.40130  -0.39830
  Beta  occ. eigenvalues --   -0.39618  -0.39338  -0.39183  -0.39099  -0.39092
  Beta  occ. eigenvalues --   -0.38894  -0.38863  -0.38815  -0.38710  -0.38675
  Beta  occ. eigenvalues --   -0.38603  -0.38332  -0.38298  -0.38262  -0.37337
  Beta  occ. eigenvalues --   -0.37194  -0.37172  -0.35440  -0.35417  -0.33777
  Beta  occ. eigenvalues --   -0.30691
  Beta virt. eigenvalues --   -0.06240  -0.06221  -0.04778  -0.04725  -0.04618
  Beta virt. eigenvalues --   -0.01449  -0.01355  -0.01311  -0.01096  -0.00922
  Beta virt. eigenvalues --   -0.00899  -0.00833  -0.00149  -0.00047  -0.00024

 Mulliken charges and spin densities:
               1          2
     1  Cl  -0.361179  -0.606417
     2  C   -0.038770  -0.082957
     3  C    0.014579   0.050467
     4  C   -0.036206  -0.079813
     5  C   -0.031896   0.051225
     6  C    0.005824  -0.098857
     7  C   -0.049036   0.050335
     8  H    0.046477   0.003523
     9  H    0.048776   0.003431
    10  H    0.054343  -0.001821
    11  H    0.055949   0.004342
    12  H    0.053111  -0.001760
    13  C    0.001539  -0.218508
    14  C   -0.017612  -0.086645
    15  H    0.073400   0.009388
    16  H    0.095255   0.004434
    17  H    0.093755   0.003843
    18  O   -0.671958  -0.000563
    19  O   -0.669705  -0.000490
    20  O   -0.666406  -0.001927
    21  O   -0.671666  -0.000530
    22  W    1.718722   0.000343
    23  W    1.659744   0.000524
    24  W    1.673017   0.000206
    25  W    1.680833   0.000184
    26  W    1.661055   0.002789
    27  W    1.707561   0.002494
    28  W    1.612070   0.003346
    29  W    1.669973   0.002929
    30  O   -0.350259  -0.000542
    31  O   -0.394738  -0.000584
    32  O   -0.394364  -0.000620
    33  O   -0.393074  -0.000574
    34  O   -0.672241  -0.000289
    35  O   -0.677671  -0.000006
    36  O   -0.669781  -0.000104
    37  O   -0.671856  -0.000197
    38  O   -0.396182   0.002104
    39  O   -0.397139   0.002128
    40  O   -0.339207  -0.001380
    41  O   -0.396069   0.002123
    42  O   -0.677446   0.000065
    43  O   -0.670897   0.000179
    44  O   -0.667347   0.000319
    45  O   -0.673431   0.000111
    46  O   -0.396356   0.002278
    47  O   -0.351941   0.002156
    48  O   -0.388036   0.001726
    49  O   -0.395751   0.002347
    50  W    1.657448   0.002887
    51  W    1.661675   0.002770
    52  W    1.669975   0.003876
    53  W    1.668235   0.002728
    54  O   -0.721244   0.000129
    55  O   -0.703895   0.000024
    56  O   -0.721582   0.000204
    57  O   -0.719266   0.000087
    58  O   -0.701629  -0.000030
    59  O   -0.723184   0.000174
    60  O   -0.721756   0.000227
    61  O   -0.718476   0.000228
    62  O   -0.721334  -0.000170
    63  O   -0.704871   0.000002
    64  O   -0.721019  -0.000187
    65  O   -0.723721  -0.000199
    66  O   -0.882113   0.005382
    67  O   -0.882181   0.007738
    68  O   -0.880548   0.007551
    69  O   -0.888681   0.007058
    70  K    0.848898   0.000210
    71  K    0.848322   0.000233
    72  K    0.843671   0.000262
    73  V    1.199518   0.934061
 Sum of Mulliken charges =  -1.00000   0.00000

 Dipole moment (field-independent basis, Debye):
    X=             29.4308    Y=            -13.5593    Z=            -30.9442  Tot=             44.8060
 Quadrupole moment (field-independent basis, Debye-Ang):
   XX=           -783.2745   YY=           -699.5346   ZZ=           -787.2405
   XY=            130.8538   XZ=            190.0222   YZ=            -92.3256

 Normal termination of Gaussian 16 at Sat Jun  1 19:26:25 2024.
