 Gaussian 16, Revision C.01,
 Gaussian 16:  ES64L-G16RevC.01  3-Jul-2019

 ----------------------------------------------------------------------
 # def2svp wb97xd scrf=(smd,solvent=acetonitrile) g09default scf=(xqc,m
 axcycle=64) force guess=read nosymm
 ----------------------------------------------------------------------

 ----------
 Title Card
 ----------
 Symbolic Z-matrix:
 Charge = -1 Multiplicity = 1

                          Input orientation:
 ---------------------------------------------------------------------
 Center     Atomic      Atomic             Coordinates (Angstroms)
 Number     Number       Type             X           Y           Z
 ---------------------------------------------------------------------
      1         17           0       -9.974808    7.857586   10.456132
      2          6           0       -8.307614    4.240277   12.235515
      3          6           0       -9.062025    3.915230   11.092494
      4          6           0      -10.004133    2.876693   11.198407
      5          6           0      -10.188921    2.188456   12.393540
      6          6           0       -9.430035    2.521090   13.516711
      7          6           0       -8.488963    3.549806   13.430033
      8          1           0       -7.575695    5.050316   12.197894
      9          1           0      -10.601170    2.614731   10.320833
     10          1           0      -10.921755    1.379935   12.444168
     11          1           0       -9.557906    1.969869   14.450789
     12          1           0       -7.889395    3.816040   14.304760
     13          6           0       -8.926245    4.621659    9.817098
     14          6           0       -8.101730    5.653898    9.567420
     15          1           0       -9.588848    4.277182    9.015208
     16          1           0       -8.062946    6.115930    8.579430
     17          1           0       -7.386395    6.019947   10.307564
     18          8           0       -1.012455   -1.765136    7.462570
     19          8           0       -8.408701   -1.322982    7.467400
     20          8           0       -7.060599    1.340246   10.486671
     21          8           0       -2.332902   -4.346914   10.559319
     22         74           0       -3.428048    0.743288    6.498906
     23         74           0       -6.010820   -3.824305    6.586494
     24         74           0       -3.635500    0.915416   11.405806
     25         74           0       -5.777153   -3.867029   11.470168
     26         74           0       -2.470452   -2.545858    6.381045
     27         74           0       -6.948493   -0.533206    6.350383
     28         74           0       -6.829262   -0.252355   11.594568
     29         74           0       -2.572071   -2.693485   11.628196
     30          8           0       -3.203050    1.948655    5.340049
     31          8           0       -6.140673   -5.083800    5.454467
     32          8           0       -2.708668    1.770089   12.543878
     33          8           0       -6.696410   -4.681690   12.643290
     34          8           0       -2.699203   -0.866491    5.587365
     35          8           0       -6.716450   -2.268759    5.628078
     36          8           0       -5.323554    0.563330   12.370169
     37          8           0       -4.067883   -3.508289   12.413697
     38          8           0        0.294385   -0.006010    9.277318
     39          8           0       -9.717262   -3.012220    9.335837
     40          8           0       -6.398881    3.414423    8.628827
     41          8           0       -2.963324   -6.447381    8.744050
     42          8           0       -1.813019    0.786347    7.487154
     43          8           0       -7.612059   -3.878566    7.563398
     44          8           0       -4.536432    2.219670   10.423679
     45          8           0       -4.867451   -5.214600   10.521394
     46          8           0       -1.645426   -3.473538    5.221622
     47          8           0       -7.822484    0.268444    5.149358
     48          8           0       -8.036498   -0.179418   12.784156
     49          8           0       -1.341378   -2.799366   12.794654
     50         74           0       -1.266844   -0.515396    8.844649
     51         74           0       -8.158570   -2.510358    8.884467
     52         74           0       -5.933540    1.852562    9.045014
     53         74           0       -3.470404   -4.881016    9.164490
     54          8           0       -4.238068   -3.093568    6.072305
     55          8           0       -5.178590   -0.028944    6.015471
     56          8           0       -6.189205   -2.000692   11.923353
     57          8           0       -3.187317   -0.949436   11.929651
     58          8           0       -4.395831    1.599248    7.847305
     59          8           0       -5.004083   -4.673881    7.929459
     60          8           0       -2.341281    0.600129   10.079899
     61          8           0       -7.068858   -3.607899   10.139804
     62          8           0       -2.579442   -3.870700    7.858291
     63          8           0       -6.847783    0.789069    7.802627
     64          8           0       -7.847300   -1.173112   10.163067
     65          8           0       -1.572759   -1.834782   10.153849
     66          8           0       -3.387856   -1.127094    8.015720
     67          8           0       -6.032164   -1.953039    8.045292
     68          8           0       -5.135353   -0.198382    9.953073
     69          8           0       -4.254183   -2.821436    9.980747
     70         19           0       -3.235041   -6.113553    5.669899
     71         19           0       -0.156005    0.036592   12.345400
     72         19           0       -9.262983   -2.928894   12.404670
     73         23           0       -4.704557   -1.520983    8.995414
 ---------------------------------------------------------------------

 SCF Done:  E(RwB97XD) =  -7327.69953774     A.U. after   13 cycles

 Alpha  occ. eigenvalues -- -197.29036-130.00057-130.00024-129.99938-101.47611
 Alpha  occ. eigenvalues --  -22.62202 -19.33497 -19.33482 -19.33476 -19.33452
 Alpha  occ. eigenvalues --  -19.30704 -19.30682 -19.30679 -19.30672 -19.30665
 Alpha  occ. eigenvalues --  -19.30652 -19.30623 -19.30612 -19.30501 -19.30318
 Alpha  occ. eigenvalues --  -19.30309 -19.30050 -19.29326 -19.29320 -19.29296
 Alpha  occ. eigenvalues --  -19.29288 -19.29285 -19.29277 -19.29268 -19.29214
 Alpha  occ. eigenvalues --  -19.29182 -19.29149 -19.29147 -19.29127 -19.29107
 Alpha  occ. eigenvalues --  -19.29100 -19.29099 -19.29091 -19.29075 -19.29062
 Alpha  occ. eigenvalues --  -19.29031 -19.29011 -19.28967 -19.28940 -19.28933
 Alpha  occ. eigenvalues --  -19.28692 -19.11153 -19.11144 -19.11138 -13.37458
 Alpha  occ. eigenvalues --  -13.37424 -13.37327 -10.70387 -10.70380 -10.70380
 Alpha  occ. eigenvalues --  -10.70354 -10.70347 -10.70346 -10.70258 -10.70251
 Alpha  occ. eigenvalues --  -10.70248 -10.29749 -10.29304 -10.29237 -10.29034
 Alpha  occ. eigenvalues --  -10.28922 -10.28885 -10.27998 -10.27341  -9.38072
 Alpha  occ. eigenvalues --   -7.12894  -7.12853  -7.12850  -3.23290  -3.23273
 Alpha  occ. eigenvalues --   -3.23264  -3.23263  -3.23252  -3.23250  -3.23196
 Alpha  occ. eigenvalues --   -3.23187  -3.23130  -3.22907  -3.22896  -3.22613
 Alpha  occ. eigenvalues --   -2.91558  -1.93971  -1.93942  -1.93928  -1.87706
 Alpha  occ. eigenvalues --   -1.87640  -1.87626  -1.87556  -1.87474  -1.87460
 Alpha  occ. eigenvalues --   -1.87446  -1.87423  -1.87360  -1.87226  -1.87197
 Alpha  occ. eigenvalues --   -1.86983  -1.86601  -1.86482  -1.86472  -1.86453
 Alpha  occ. eigenvalues --   -1.86425  -1.86379  -1.86309  -1.86288  -1.86273
 Alpha  occ. eigenvalues --   -1.86259  -1.86227  -1.86193  -1.86124  -1.86091
 Alpha  occ. eigenvalues --   -1.86089  -1.86060  -1.86020  -1.85958  -1.85942
 Alpha  occ. eigenvalues --   -1.85878  -1.85843  -1.85751  -1.85599  -1.85519
 Alpha  occ. eigenvalues --   -1.51149  -1.51117  -1.51021  -1.12948  -1.11177
 Alpha  occ. eigenvalues --   -1.11070  -1.11062  -1.08920  -1.08512  -1.08465
 Alpha  occ. eigenvalues --   -1.08286  -1.07513  -1.07448  -1.07419  -1.06879
 Alpha  occ. eigenvalues --   -1.06854  -1.06809  -1.06281  -1.06233  -1.05317
 Alpha  occ. eigenvalues --   -1.05305  -1.04940  -1.04933  -1.04888  -1.04198
 Alpha  occ. eigenvalues --   -1.04189  -1.04166  -1.04019  -1.04009  -1.03996
 Alpha  occ. eigenvalues --   -1.03935  -1.03883  -1.03864  -1.03752  -1.03703
 Alpha  occ. eigenvalues --   -1.03614  -1.03529  -1.03273  -1.03245  -1.03114
 Alpha  occ. eigenvalues --   -1.03096  -1.03035  -1.02888  -0.94311  -0.86619
 Alpha  occ. eigenvalues --   -0.86590  -0.86501  -0.86434  -0.86429  -0.86424
 Alpha  occ. eigenvalues --   -0.86395  -0.86391  -0.86303  -0.86289  -0.82748
 Alpha  occ. eigenvalues --   -0.79702  -0.70787  -0.69696  -0.67941  -0.64563
 Alpha  occ. eigenvalues --   -0.63937  -0.63881  -0.63850  -0.63215  -0.63192
 Alpha  occ. eigenvalues --   -0.63099  -0.62950  -0.62611  -0.62551  -0.61865
 Alpha  occ. eigenvalues --   -0.61557  -0.61542  -0.61441  -0.61209  -0.61199
 Alpha  occ. eigenvalues --   -0.61144  -0.60385  -0.59441  -0.59409  -0.59401
 Alpha  occ. eigenvalues --   -0.59343  -0.59327  -0.58620  -0.57972  -0.57934
 Alpha  occ. eigenvalues --   -0.57868  -0.56997  -0.56969  -0.56919  -0.56256
 Alpha  occ. eigenvalues --   -0.56223  -0.56086  -0.55707  -0.54866  -0.54808
 Alpha  occ. eigenvalues --   -0.54766  -0.54511  -0.54213  -0.54092  -0.54049
 Alpha  occ. eigenvalues --   -0.53999  -0.53943  -0.53235  -0.53213  -0.53073
 Alpha  occ. eigenvalues --   -0.53012  -0.52889  -0.52694  -0.52672  -0.52631
 Alpha  occ. eigenvalues --   -0.52596  -0.52474  -0.52432  -0.52387  -0.51582
 Alpha  occ. eigenvalues --   -0.51558  -0.51347  -0.51328  -0.51300  -0.51240
 Alpha  occ. eigenvalues --   -0.51177  -0.51139  -0.50977  -0.50793  -0.50611
 Alpha  occ. eigenvalues --   -0.50590  -0.50575  -0.49914  -0.49886  -0.49269
 Alpha  occ. eigenvalues --   -0.49250  -0.49190  -0.49181  -0.49156  -0.49089
 Alpha  occ. eigenvalues --   -0.48893  -0.48047  -0.48020  -0.47894  -0.47578
 Alpha  occ. eigenvalues --   -0.47355  -0.47252  -0.47196  -0.46977  -0.46922
 Alpha  occ. eigenvalues --   -0.46836  -0.46605  -0.46574  -0.46430  -0.46152
 Alpha  occ. eigenvalues --   -0.46106  -0.46051  -0.45562  -0.45083  -0.44904
 Alpha  occ. eigenvalues --   -0.44867  -0.44155  -0.44122  -0.43979  -0.43481
 Alpha  occ. eigenvalues --   -0.43285  -0.43226  -0.43103  -0.43087  -0.43042
 Alpha  occ. eigenvalues --   -0.42718  -0.42707  -0.42668  -0.42580  -0.42571
 Alpha  occ. eigenvalues --   -0.42486  -0.42459  -0.42429  -0.42282  -0.42268
 Alpha  occ. eigenvalues --   -0.42237  -0.42017  -0.41890  -0.41834  -0.41818
 Alpha  occ. eigenvalues --   -0.41191  -0.41166  -0.41116  -0.41030  -0.40557
 Alpha  occ. eigenvalues --   -0.40525  -0.40518  -0.40317  -0.39412  -0.39381
 Alpha  occ. eigenvalues --   -0.36759  -0.32489  -0.28798  -0.24538  -0.24497
 Alpha  occ. eigenvalues --   -0.22966
 Alpha virt. eigenvalues --   -0.09131  -0.08963  -0.08334  -0.08302  -0.06897
 Alpha virt. eigenvalues --   -0.06859  -0.06775  -0.04144  -0.03957  -0.03912
 Alpha virt. eigenvalues --   -0.03626  -0.03429  -0.03358  -0.03166  -0.03041

 Mulliken charges:
               1
     1  Cl  -0.925348
     2  C   -0.082116
     3  C    0.041421
     4  C   -0.078340
     5  C   -0.033702
     6  C   -0.032744
     7  C   -0.050609
     8  H    0.027329
     9  H    0.028530
    10  H    0.040149
    11  H    0.036921
    12  H    0.039345
    13  C   -0.085899
    14  C    0.026021
    15  H    0.016112
    16  H    0.036639
    17  H    0.036191
    18  O   -0.663484
    19  O   -0.660931
    20  O   -0.655693
    21  O   -0.662792
    22  W    1.734288
    23  W    1.672793
    24  W    1.683627
    25  W    1.693397
    26  W    1.674669
    27  W    1.725339
    28  W    1.620351
    29  W    1.684038
    30  O   -0.320837
    31  O   -0.366767
    32  O   -0.366174
    33  O   -0.364623
    34  O   -0.664126
    35  O   -0.670429
    36  O   -0.661065
    37  O   -0.662960
    38  O   -0.365736
    39  O   -0.366197
    40  O   -0.290533
    41  O   -0.366075
    42  O   -0.670076
    43  O   -0.662286
    44  O   -0.658813
    45  O   -0.665233
    46  O   -0.365977
    47  O   -0.320889
    48  O   -0.354969
    49  O   -0.365552
    50  W    1.671386
    51  W    1.675439
    52  W    1.672686
    53  W    1.682866
    54  O   -0.723117
    55  O   -0.705487
    56  O   -0.725148
    57  O   -0.721152
    58  O   -0.704160
    59  O   -0.725728
    60  O   -0.724074
    61  O   -0.720524
    62  O   -0.722787
    63  O   -0.706551
    64  O   -0.721640
    65  O   -0.725565
    66  O   -0.799783
    67  O   -0.799453
    68  O   -0.797276
    69  O   -0.809469
    70  K    0.863014
    71  K    0.862333
    72  K    0.858303
    73  V    1.189703
 Sum of Mulliken charges =  -1.00000

 Dipole moment (field-independent basis, Debye):
    X=             51.8662    Y=            -50.0621    Z=            -38.5648  Tot=             81.7530
 Quadrupole moment (field-independent basis, Debye-Ang):
   XX=          -1073.9859   YY=           -863.1880   ZZ=           -912.2033
   XY=            447.7008   XZ=            464.7986   YZ=           -464.1220

 Normal termination of Gaussian 16 at Sat Jun  1 20:23:28 2024.
