 Gaussian 16, Revision C.01,
 Gaussian 16:  ES64L-G16RevC.01  3-Jul-2019

 ----------------------------------------------------------------------
 # def2svp wb97xd scrf=(smd,solvent=acetonitrile) g09default scf=(xqc,m
 axcycle=64) force guess=read nosymm
 ----------------------------------------------------------------------

 ----------
 Title Card
 ----------
 Symbolic Z-matrix:
 Charge = -1 Multiplicity = 1

                          Input orientation:
 ---------------------------------------------------------------------
 Center     Atomic      Atomic             Coordinates (Angstroms)
 Number     Number       Type             X           Y           Z
 ---------------------------------------------------------------------
      1         17           0       -9.974808    7.857586   10.456132
      2          6           0       -8.307614    4.240277   12.235515
      3          6           0       -9.062025    3.915230   11.092494
      4          6           0      -10.004133    2.876693   11.198407
      5          6           0      -10.188921    2.188456   12.393540
      6          6           0       -9.430035    2.521090   13.516711
      7          6           0       -8.488963    3.549806   13.430033
      8          1           0       -7.575695    5.050316   12.197894
      9          1           0      -10.601170    2.614731   10.320833
     10          1           0      -10.921755    1.379935   12.444168
     11          1           0       -9.557906    1.969869   14.450789
     12          1           0       -7.889395    3.816040   14.304760
     13          6           0       -8.926245    4.621659    9.817098
     14          6           0       -8.101730    5.653898    9.567420
     15          1           0       -9.588848    4.277182    9.015208
     16          1           0       -8.062946    6.115930    8.579430
     17          1           0       -7.386395    6.019947   10.307564
     18          8           0       -1.012455   -1.765136    7.462570
     19          8           0       -8.408701   -1.322982    7.467400
     20          8           0       -7.060599    1.340246   10.486671
     21          8           0       -2.332902   -4.346914   10.559319
     22         74           0       -3.428048    0.743288    6.498906
     23         74           0       -6.010820   -3.824305    6.586494
     24         74           0       -3.635500    0.915416   11.405806
     25         74           0       -5.777153   -3.867029   11.470168
     26         74           0       -2.470452   -2.545858    6.381045
     27         74           0       -6.948493   -0.533206    6.350383
     28         74           0       -6.829262   -0.252355   11.594568
     29         74           0       -2.572071   -2.693485   11.628196
     30          8           0       -3.203050    1.948655    5.340049
     31          8           0       -6.140673   -5.083800    5.454467
     32          8           0       -2.708668    1.770089   12.543878
     33          8           0       -6.696410   -4.681690   12.643290
     34          8           0       -2.699203   -0.866491    5.587365
     35          8           0       -6.716450   -2.268759    5.628078
     36          8           0       -5.323554    0.563330   12.370169
     37          8           0       -4.067883   -3.508289   12.413697
     38          8           0        0.294385   -0.006010    9.277318
     39          8           0       -9.717262   -3.012220    9.335837
     40          8           0       -6.398881    3.414423    8.628827
     41          8           0       -2.963324   -6.447381    8.744050
     42          8           0       -1.813019    0.786347    7.487154
     43          8           0       -7.612059   -3.878566    7.563398
     44          8           0       -4.536432    2.219670   10.423679
     45          8           0       -4.867451   -5.214600   10.521394
     46          8           0       -1.645426   -3.473538    5.221622
     47          8           0       -7.822484    0.268444    5.149358
     48          8           0       -8.036498   -0.179418   12.784156
     49          8           0       -1.341378   -2.799366   12.794654
     50         74           0       -1.266844   -0.515396    8.844649
     51         74           0       -8.158570   -2.510358    8.884467
     52         74           0       -5.933540    1.852562    9.045014
     53         74           0       -3.470404   -4.881016    9.164490
     54          8           0       -4.238068   -3.093568    6.072305
     55          8           0       -5.178590   -0.028944    6.015471
     56          8           0       -6.189205   -2.000692   11.923353
     57          8           0       -3.187317   -0.949436   11.929651
     58          8           0       -4.395831    1.599248    7.847305
     59          8           0       -5.004083   -4.673881    7.929459
     60          8           0       -2.341281    0.600129   10.079899
     61          8           0       -7.068858   -3.607899   10.139804
     62          8           0       -2.579442   -3.870700    7.858291
     63          8           0       -6.847783    0.789069    7.802627
     64          8           0       -7.847300   -1.173112   10.163067
     65          8           0       -1.572759   -1.834782   10.153849
     66          8           0       -3.387856   -1.127094    8.015720
     67          8           0       -6.032164   -1.953039    8.045292
     68          8           0       -5.135353   -0.198382    9.953073
     69          8           0       -4.254183   -2.821436    9.980747
     70         19           0       -3.235041   -6.113553    5.669899
     71         19           0       -0.156005    0.036592   12.345400
     72         19           0       -9.262983   -2.928894   12.404670
     73         23           0       -4.704557   -1.520983    8.995414
 ---------------------------------------------------------------------

 SCF Done:  E(UwB97XD) =  -7327.70051328     A.U. after   49 cycles

 Alpha  occ. eigenvalues --  -19.24555 -18.93724 -18.92639 -18.92592 -13.36444
 Alpha  occ. eigenvalues --  -13.36439 -13.36388 -10.69371 -10.69367 -10.69366
 Alpha  occ. eigenvalues --  -10.69366 -10.69362 -10.69362 -10.69317 -10.69312
 Alpha  occ. eigenvalues --  -10.69310 -10.32892 -10.32309 -10.31778 -10.30883
 Alpha  occ. eigenvalues --  -10.30862 -10.30811 -10.30479 -10.30388  -9.52263
 Alpha  occ. eigenvalues --   -7.27139  -7.26811  -7.26804  -3.21066  -3.21044
 Alpha  occ. eigenvalues --   -3.21039  -3.21036  -3.21009  -3.20997  -3.20987
 Alpha  occ. eigenvalues --   -3.20981  -3.20973  -3.20833  -3.20822  -3.20801
 Alpha  occ. eigenvalues --   -2.78554  -1.85321  -1.85288  -1.85266  -1.85235
 Alpha  occ. eigenvalues --   -1.85114  -1.85070  -1.85055  -1.85036  -1.85026
 Alpha  occ. eigenvalues --   -1.85016  -1.84988  -1.84933  -1.84370  -1.84258
 Alpha  occ. eigenvalues --   -1.84243  -1.84239  -1.84197  -1.84189  -1.84119
 Alpha  occ. eigenvalues --   -1.84106  -1.84079  -1.84076  -1.84048  -1.84040
 Alpha  occ. eigenvalues --   -1.83919  -1.83894  -1.83883  -1.83876  -1.83840
 Alpha  occ. eigenvalues --   -1.83802  -1.83785  -1.83781  -1.83764  -1.83662
 Alpha  occ. eigenvalues --   -1.83661  -1.83648  -1.81747  -1.81411  -1.81388
 Alpha  occ. eigenvalues --   -1.50151  -1.50145  -1.50096  -1.08597  -1.06960
 Alpha  occ. eigenvalues --   -1.06931  -1.06901  -1.06006  -1.05995  -1.05965
 Alpha  occ. eigenvalues --   -1.04569  -1.04560  -1.04546  -1.03961  -1.03936
 Alpha  occ. eigenvalues --   -1.03664  -1.03357  -1.03305  -1.03295  -1.03051
 Alpha  occ. eigenvalues --   -1.03026  -1.02225  -1.02207  -1.02175  -1.02082
 Alpha  occ. eigenvalues --   -1.02037  -1.02008  -1.01944  -1.01917  -1.01799
 Alpha  occ. eigenvalues --   -1.01760  -1.01745  -1.01633  -1.01583  -1.01569
 Alpha  occ. eigenvalues --   -1.01282  -1.00812  -1.00771  -1.00726  -1.00708
 Alpha  occ. eigenvalues --   -0.99956  -0.99883  -0.99817  -0.96067  -0.89237
 Alpha  occ. eigenvalues --   -0.85600  -0.85591  -0.85552  -0.85441  -0.85438
 Alpha  occ. eigenvalues --   -0.85438  -0.85432  -0.85392  -0.85375  -0.84149
 Alpha  occ. eigenvalues --   -0.82316  -0.80776  -0.71837  -0.69498  -0.64986
 Alpha  occ. eigenvalues --   -0.62306  -0.61696  -0.61653  -0.61611  -0.60556
 Alpha  occ. eigenvalues --   -0.58970  -0.58959  -0.58946  -0.58878  -0.58822
 Alpha  occ. eigenvalues --   -0.58744  -0.58733  -0.58687  -0.58539  -0.57328
 Alpha  occ. eigenvalues --   -0.57294  -0.57264  -0.56995  -0.56731  -0.56485
 Alpha  occ. eigenvalues --   -0.56449  -0.56410  -0.56006  -0.55847  -0.55347
 Alpha  occ. eigenvalues --   -0.55341  -0.55305  -0.54340  -0.54208  -0.54177
 Alpha  occ. eigenvalues --   -0.54001  -0.53649  -0.53605  -0.53581  -0.52727
 Alpha  occ. eigenvalues --   -0.52633  -0.52625  -0.52532  -0.52485  -0.51483
 Alpha  occ. eigenvalues --   -0.51468  -0.51455  -0.51363  -0.51305  -0.50676
 Alpha  occ. eigenvalues --   -0.50593  -0.50528  -0.50484  -0.50376  -0.50308
 Alpha  occ. eigenvalues --   -0.50240  -0.50058  -0.50046  -0.50003  -0.49764
 Alpha  occ. eigenvalues --   -0.49709  -0.49665  -0.49500  -0.49467  -0.49314
 Alpha  occ. eigenvalues --   -0.49253  -0.49217  -0.49123  -0.49088  -0.48990
 Alpha  occ. eigenvalues --   -0.48753  -0.48585  -0.48571  -0.48507  -0.47709
 Alpha  occ. eigenvalues --   -0.47693  -0.47113  -0.46502  -0.46045  -0.46032
 Alpha  occ. eigenvalues --   -0.45857  -0.45775  -0.45716  -0.45628  -0.45204
 Alpha  occ. eigenvalues --   -0.45121  -0.45117  -0.44834  -0.44627  -0.44503
 Alpha  occ. eigenvalues --   -0.44477  -0.44455  -0.44267  -0.44262  -0.44242
 Alpha  occ. eigenvalues --   -0.43371  -0.43041  -0.42548  -0.42512  -0.42450
 Alpha  occ. eigenvalues --   -0.42299  -0.42166  -0.42158  -0.42040  -0.41633
 Alpha  occ. eigenvalues --   -0.41606  -0.41562  -0.41030  -0.40997  -0.40806
 Alpha  occ. eigenvalues --   -0.40761  -0.40736  -0.40411  -0.40401  -0.40369
 Alpha  occ. eigenvalues --   -0.40212  -0.40180  -0.40173  -0.40150  -0.39884
 Alpha  occ. eigenvalues --   -0.39339  -0.39259  -0.39233  -0.39152  -0.39012
 Alpha  occ. eigenvalues --   -0.38918  -0.38892  -0.38821  -0.38719  -0.38685
 Alpha  occ. eigenvalues --   -0.38323  -0.38297  -0.38259  -0.37838  -0.37184
 Alpha  occ. eigenvalues --   -0.37176  -0.34515  -0.34490  -0.33542  -0.30072
 Alpha  occ. eigenvalues --   -0.25469
 Alpha virt. eigenvalues --   -0.11686  -0.06234  -0.06207  -0.04773  -0.04718
 Alpha virt. eigenvalues --   -0.04614  -0.01458  -0.01366  -0.01321  -0.01090
 Alpha virt. eigenvalues --   -0.00918  -0.00893  -0.00829  -0.00141  -0.00049

  Beta  occ. eigenvalues -- -197.10432-129.99037-129.99032-129.98993-101.62261
  Beta  occ. eigenvalues --  -22.42891 -19.28507 -19.28493 -19.28462 -19.28396
  Beta  occ. eigenvalues --  -19.28394 -19.28375 -19.28370 -19.28355 -19.28343
  Beta  occ. eigenvalues --  -19.28265 -19.28251 -19.28163 -19.26962 -19.26907
  Beta  occ. eigenvalues --  -19.26905 -19.26901 -19.26881 -19.26878 -19.26854
  Beta  occ. eigenvalues --  -19.26846 -19.26838 -19.26838 -19.26814 -19.26812
  Beta  occ. eigenvalues --  -19.26812 -19.26794 -19.26790 -19.26786 -19.26782
  Beta  occ. eigenvalues --  -19.26771 -19.26749 -19.26724 -19.26718 -19.26702
  Beta  occ. eigenvalues --  -19.26651 -19.26634 -19.24636 -19.24560 -19.24554
  Beta  occ. eigenvalues --  -19.24529 -18.93380 -18.91201 -18.91109 -13.36444
  Beta  occ. eigenvalues --  -13.36439 -13.36388 -10.69371 -10.69367 -10.69366
  Beta  occ. eigenvalues --  -10.69366 -10.69362 -10.69362 -10.69317 -10.69312
  Beta  occ. eigenvalues --  -10.69310 -10.33141 -10.32485 -10.31731 -10.30972
  Beta  occ. eigenvalues --  -10.30968 -10.30898 -10.30428 -10.30336  -9.52713
  Beta  occ. eigenvalues --   -7.28554  -7.27119  -7.27111  -3.21066  -3.21043
  Beta  occ. eigenvalues --   -3.21037  -3.21032  -3.21003  -3.20991  -3.20981
  Beta  occ. eigenvalues --   -3.20975  -3.20967  -3.20833  -3.20819  -3.20796
  Beta  occ. eigenvalues --   -2.74501  -1.85316  -1.85282  -1.85262  -1.85227
  Beta  occ. eigenvalues --   -1.85109  -1.85065  -1.85049  -1.85031  -1.85017
  Beta  occ. eigenvalues --   -1.85006  -1.84985  -1.84924  -1.84367  -1.84256
  Beta  occ. eigenvalues --   -1.84241  -1.84236  -1.84194  -1.84186  -1.84117
  Beta  occ. eigenvalues --   -1.84104  -1.84076  -1.84073  -1.84045  -1.84036
  Beta  occ. eigenvalues --   -1.83917  -1.83891  -1.83881  -1.83873  -1.83838
  Beta  occ. eigenvalues --   -1.83799  -1.83782  -1.83778  -1.83761  -1.83660
  Beta  occ. eigenvalues --   -1.83659  -1.83646  -1.80416  -1.75764  -1.75566
  Beta  occ. eigenvalues --   -1.50151  -1.50145  -1.50096  -1.08580  -1.06940
  Beta  occ. eigenvalues --   -1.06912  -1.06875  -1.06004  -1.05993  -1.05963
  Beta  occ. eigenvalues --   -1.04569  -1.04559  -1.04548  -1.03960  -1.03938
  Beta  occ. eigenvalues --   -1.03597  -1.03326  -1.03271  -1.03262  -1.03050
  Beta  occ. eigenvalues --   -1.03018  -1.02208  -1.02183  -1.02161  -1.02073
  Beta  occ. eigenvalues --   -1.02032  -1.01995  -1.01940  -1.01908  -1.01795
  Beta  occ. eigenvalues --   -1.01757  -1.01742  -1.01634  -1.01581  -1.01554
  Beta  occ. eigenvalues --   -1.01282  -1.00776  -1.00766  -1.00726  -1.00706
  Beta  occ. eigenvalues --   -0.99819  -0.99729  -0.99694  -0.96272  -0.89921
  Beta  occ. eigenvalues --   -0.85600  -0.85591  -0.85552  -0.85441  -0.85438
  Beta  occ. eigenvalues --   -0.85438  -0.85432  -0.85392  -0.85375  -0.84319
  Beta  occ. eigenvalues --   -0.84175  -0.82685  -0.72103  -0.69609  -0.65229
  Beta  occ. eigenvalues --   -0.62306  -0.61695  -0.61653  -0.61611  -0.60744
  Beta  occ. eigenvalues --   -0.58969  -0.58955  -0.58944  -0.58807  -0.58746
  Beta  occ. eigenvalues --   -0.58724  -0.58714  -0.58665  -0.58539  -0.57301
  Beta  occ. eigenvalues --   -0.57143  -0.57096  -0.56985  -0.56879  -0.56486
  Beta  occ. eigenvalues --   -0.56420  -0.56374  -0.55803  -0.55603  -0.55327
  Beta  occ. eigenvalues --   -0.55323  -0.55304  -0.54510  -0.54203  -0.54169
  Beta  occ. eigenvalues --   -0.53991  -0.53626  -0.53580  -0.53536  -0.52770
  Beta  occ. eigenvalues --   -0.52661  -0.52610  -0.52518  -0.52477  -0.51466
  Beta  occ. eigenvalues --   -0.51452  -0.51434  -0.51303  -0.51250  -0.50850
  Beta  occ. eigenvalues --   -0.50495  -0.50469  -0.50414  -0.50325  -0.50271
  Beta  occ. eigenvalues --   -0.50206  -0.50045  -0.50025  -0.49975  -0.49718
  Beta  occ. eigenvalues --   -0.49680  -0.49644  -0.49491  -0.49456  -0.49316
  Beta  occ. eigenvalues --   -0.49232  -0.49216  -0.49092  -0.49072  -0.48968
  Beta  occ. eigenvalues --   -0.48746  -0.48590  -0.48574  -0.48500  -0.47783
  Beta  occ. eigenvalues --   -0.47675  -0.47561  -0.45929  -0.45902  -0.45829
  Beta  occ. eigenvalues --   -0.45793  -0.45694  -0.45583  -0.45205  -0.45158
  Beta  occ. eigenvalues --   -0.45120  -0.45056  -0.44834  -0.44628  -0.44478
  Beta  occ. eigenvalues --   -0.44464  -0.44413  -0.44262  -0.44226  -0.44214
  Beta  occ. eigenvalues --   -0.43363  -0.43134  -0.42510  -0.42473  -0.42412
  Beta  occ. eigenvalues --   -0.42259  -0.42123  -0.42115  -0.42105  -0.41611
  Beta  occ. eigenvalues --   -0.41607  -0.41548  -0.41361  -0.41033  -0.40947
  Beta  occ. eigenvalues --   -0.40744  -0.40714  -0.40662  -0.40392  -0.40387
  Beta  occ. eigenvalues --   -0.40340  -0.40172  -0.40164  -0.40127  -0.39826
  Beta  occ. eigenvalues --   -0.39618  -0.39337  -0.39177  -0.39097  -0.39087
  Beta  occ. eigenvalues --   -0.38890  -0.38861  -0.38811  -0.38707  -0.38669
  Beta  occ. eigenvalues --   -0.38608  -0.38320  -0.38289  -0.38253  -0.37363
  Beta  occ. eigenvalues --   -0.37185  -0.37168  -0.35447  -0.35426  -0.33785
  Beta  occ. eigenvalues --   -0.30693
  Beta virt. eigenvalues --   -0.06233  -0.06207  -0.04772  -0.04717  -0.04613
  Beta virt. eigenvalues --   -0.01454  -0.01361  -0.01316  -0.01085  -0.00913
  Beta virt. eigenvalues --   -0.00890  -0.00827  -0.00141  -0.00039  -0.00020

 Mulliken charges and spin densities:
               1          2
     1  Cl  -0.360880  -0.607218
     2  C   -0.038423  -0.083011
     3  C    0.014684   0.050127
     4  C   -0.035845  -0.080160
     5  C   -0.031816   0.051449
     6  C    0.006090  -0.099485
     7  C   -0.049116   0.050458
     8  H    0.046823   0.003528
     9  H    0.048795   0.003441
    10  H    0.054172  -0.001827
    11  H    0.055772   0.004367
    12  H    0.053256  -0.001764
    13  C    0.000985  -0.217056
    14  C   -0.018501  -0.086473
    15  H    0.073421   0.009326
    16  H    0.095271   0.004506
    17  H    0.093753   0.003890
    18  O   -0.672103  -0.000564
    19  O   -0.669665  -0.000491
    20  O   -0.666607  -0.001931
    21  O   -0.671663  -0.000530
    22  W    1.717944   0.000346
    23  W    1.658642   0.000523
    24  W    1.671582   0.000201
    25  W    1.679600   0.000186
    26  W    1.660692   0.002789
    27  W    1.707436   0.002506
    28  W    1.611985   0.003345
    29  W    1.669638   0.002936
    30  O   -0.350359  -0.000539
    31  O   -0.395052  -0.000581
    32  O   -0.394322  -0.000615
    33  O   -0.393115  -0.000570
    34  O   -0.672380  -0.000292
    35  O   -0.677640  -0.000016
    36  O   -0.669842  -0.000113
    37  O   -0.671828  -0.000204
    38  O   -0.395387   0.002101
    39  O   -0.396073   0.002123
    40  O   -0.338588  -0.001292
    41  O   -0.395997   0.002125
    42  O   -0.677501   0.000067
    43  O   -0.670820   0.000179
    44  O   -0.667336   0.000313
    45  O   -0.673544   0.000108
    46  O   -0.395736   0.002286
    47  O   -0.352116   0.002171
    48  O   -0.387459   0.001735
    49  O   -0.395427   0.002355
    50  W    1.657124   0.002879
    51  W    1.661198   0.002763
    52  W    1.669772   0.003870
    53  W    1.668182   0.002724
    54  O   -0.721049   0.000124
    55  O   -0.703737   0.000020
    56  O   -0.721652   0.000197
    57  O   -0.719172   0.000081
    58  O   -0.701659  -0.000026
    59  O   -0.722997   0.000171
    60  O   -0.721565   0.000223
    61  O   -0.718169   0.000223
    62  O   -0.721238  -0.000172
    63  O   -0.704776  -0.000002
    64  O   -0.720871  -0.000190
    65  O   -0.723590  -0.000202
    66  O   -0.881935   0.005392
    67  O   -0.882271   0.007681
    68  O   -0.880305   0.007479
    69  O   -0.888481   0.006992
    70  K    0.849342   0.000208
    71  K    0.848811   0.000231
    72  K    0.844316   0.000259
    73  V    1.199321   0.934320
 Sum of Mulliken charges =  -1.00000   0.00000

 Dipole moment (field-independent basis, Debye):
    X=             29.4309    Y=            -13.6175    Z=            -30.8982  Tot=             44.7919
 Quadrupole moment (field-independent basis, Debye-Ang):
   XX=           -782.8862   YY=           -700.0526   ZZ=           -786.2764
   XY=            131.4530   XZ=            189.6304   YZ=            -92.8249

 Normal termination of Gaussian 16 at Sat Jun  1 20:12:06 2024.
