 Gaussian 16, Revision C.01,
 Gaussian 16:  ES64L-G16RevC.01  3-Jul-2019

 ----------------------------------------------------------------------
 # def2svp wb97xd scrf=(smd,solvent=acetonitrile) g09default scf=(xqc,m
 axcycle=64) force guess=read nosymm
 ----------------------------------------------------------------------

 ----------
 Title Card
 ----------
 Symbolic Z-matrix:
 Charge = -1 Multiplicity = 1

                          Input orientation:
 ---------------------------------------------------------------------
 Center     Atomic      Atomic             Coordinates (Angstroms)
 Number     Number       Type             X           Y           Z
 ---------------------------------------------------------------------
      1         17           0       -9.978365    7.875551   10.461246
      2          6           0       -8.307378    4.239625   12.234579
      3          6           0       -9.063624    3.915169   11.093222
      4          6           0      -10.003977    2.875197   11.198003
      5          6           0      -10.188259    2.187275   12.393460
      6          6           0       -9.429804    2.520942   13.515893
      7          6           0       -8.488308    3.548876   13.429610
      8          1           0       -7.574809    5.049036   12.197021
      9          1           0      -10.601636    2.612015   10.320806
     10          1           0      -10.923097    1.380154   12.446050
     11          1           0       -9.558538    1.971271   14.451148
     12          1           0       -7.890381    3.816949   14.304660
     13          6           0       -8.929925    4.623778    9.818214
     14          6           0       -8.107227    5.657848    9.569162
     15          1           0       -9.586480    4.272701    9.014913
     16          1           0       -8.063957    6.114410    8.578630
     17          1           0       -7.387455    6.020320   10.306298
     18          8           0       -1.011565   -1.764435    7.461577
     19          8           0       -8.409906   -1.323634    7.466744
     20          8           0       -7.059791    1.341484   10.487007
     21          8           0       -2.332495   -4.348368   10.559830
     22         74           0       -3.426420    0.743220    6.497414
     23         74           0       -6.011484   -3.826059    6.585324
     24         74           0       -3.634594    0.916442   11.407047
     25         74           0       -5.778052   -3.868100   11.471246
     26         74           0       -2.470587   -2.545903    6.380759
     27         74           0       -6.947803   -0.533877    6.349541
     28         74           0       -6.828421   -0.251770   11.594429
     29         74           0       -2.572283   -2.693870   11.628915
     30          8           0       -3.201355    1.947245    5.337232
     31          8           0       -6.142061   -5.082894    5.451800
     32          8           0       -2.709881    1.770742   12.547031
     33          8           0       -6.694750   -4.682917   12.645557
     34          8           0       -2.698683   -0.866808    5.585862
     35          8           0       -6.716730   -2.269379    5.627070
     36          8           0       -5.323487    0.563859   12.370799
     37          8           0       -4.067543   -3.508941   12.414227
     38          8           0        0.294915   -0.004746    9.275689
     39          8           0       -9.717711   -3.013412    9.333681
     40          8           0       -6.396010    3.415554    8.629377
     41          8           0       -2.963970   -6.448171    8.745672
     42          8           0       -1.811791    0.786201    7.485989
     43          8           0       -7.612528   -3.878939    7.562459
     44          8           0       -4.535333    2.220094   10.424505
     45          8           0       -4.867249   -5.215103   10.522202
     46          8           0       -1.642870   -3.473098    5.222289
     47          8           0       -7.824445    0.267460    5.151178
     48          8           0       -8.037360   -0.176663   12.782804
     49          8           0       -1.340690   -2.802455   12.793887
     50         74           0       -1.266904   -0.515831    8.844086
     51         74           0       -8.158497   -2.509861    8.883608
     52         74           0       -5.932294    1.851923    9.045067
     53         74           0       -3.470029   -4.881724    9.165188
     54          8           0       -4.237915   -3.093264    6.071707
     55          8           0       -5.178390   -0.028829    6.014045
     56          8           0       -6.189133   -2.000725   11.923773
     57          8           0       -3.186908   -0.949751   11.930852
     58          8           0       -4.393887    1.597579    7.847095
     59          8           0       -5.004919   -4.674539    7.928398
     60          8           0       -2.341330    0.600944   10.080728
     61          8           0       -7.068543   -3.609163   10.140434
     62          8           0       -2.580091   -3.871119    7.858503
     63          8           0       -6.846185    0.788676    7.802785
     64          8           0       -7.846730   -1.173716   10.162533
     65          8           0       -1.573250   -1.834253   10.153575
     66          8           0       -3.387198   -1.128314    8.016059
     67          8           0       -6.032733   -1.951816    8.045004
     68          8           0       -5.136691   -0.198538    9.952167
     69          8           0       -4.252901   -2.821733    9.980079
     70         19           0       -3.234362   -6.116336    5.667889
     71         19           0       -0.153353    0.037995   12.347477
     72         19           0       -9.265861   -2.928942   12.407437
     73         23           0       -4.704525   -1.520949    8.995327
 ---------------------------------------------------------------------

 SCF Done:  E(RwB97XD) =  -7327.69980994     A.U. after   11 cycles

 Alpha  occ. eigenvalues -- -197.29035-130.00076-130.00040-129.99955-101.47605
 Alpha  occ. eigenvalues --  -22.62200 -19.33481 -19.33475 -19.33470 -19.33454
 Alpha  occ. eigenvalues --  -19.30720 -19.30683 -19.30681 -19.30672 -19.30659
 Alpha  occ. eigenvalues --  -19.30646 -19.30632 -19.30593 -19.30497 -19.30325
 Alpha  occ. eigenvalues --  -19.30320 -19.30039 -19.29321 -19.29316 -19.29287
 Alpha  occ. eigenvalues --  -19.29284 -19.29276 -19.29274 -19.29259 -19.29210
 Alpha  occ. eigenvalues --  -19.29176 -19.29150 -19.29144 -19.29134 -19.29107
 Alpha  occ. eigenvalues --  -19.29104 -19.29092 -19.29083 -19.29073 -19.29060
 Alpha  occ. eigenvalues --  -19.29037 -19.29007 -19.28968 -19.28945 -19.28929
 Alpha  occ. eigenvalues --  -19.28699 -19.11152 -19.11143 -19.11136 -13.37477
 Alpha  occ. eigenvalues --  -13.37441 -13.37344 -10.70406 -10.70399 -10.70399
 Alpha  occ. eigenvalues --  -10.70370 -10.70363 -10.70363 -10.70275 -10.70268
 Alpha  occ. eigenvalues --  -10.70266 -10.29753 -10.29306 -10.29239 -10.29033
 Alpha  occ. eigenvalues --  -10.28930 -10.28899 -10.28016 -10.27375  -9.38065
 Alpha  occ. eigenvalues --   -7.12888  -7.12847  -7.12844  -3.23283  -3.23268
 Alpha  occ. eigenvalues --   -3.23263  -3.23257  -3.23251  -3.23245  -3.23187
 Alpha  occ. eigenvalues --   -3.23187  -3.23133  -3.22907  -3.22899  -3.22621
 Alpha  occ. eigenvalues --   -2.91552  -1.93966  -1.93935  -1.93919  -1.87704
 Alpha  occ. eigenvalues --   -1.87634  -1.87624  -1.87556  -1.87472  -1.87459
 Alpha  occ. eigenvalues --   -1.87438  -1.87414  -1.87358  -1.87231  -1.87203
 Alpha  occ. eigenvalues --   -1.86974  -1.86595  -1.86476  -1.86468  -1.86445
 Alpha  occ. eigenvalues --   -1.86419  -1.86376  -1.86305  -1.86285  -1.86267
 Alpha  occ. eigenvalues --   -1.86253  -1.86224  -1.86189  -1.86118  -1.86088
 Alpha  occ. eigenvalues --   -1.86085  -1.86055  -1.86013  -1.85957  -1.85940
 Alpha  occ. eigenvalues --   -1.85878  -1.85840  -1.85750  -1.85604  -1.85524
 Alpha  occ. eigenvalues --   -1.51167  -1.51132  -1.51036  -1.12933  -1.11156
 Alpha  occ. eigenvalues --   -1.11056  -1.11053  -1.08906  -1.08497  -1.08447
 Alpha  occ. eigenvalues --   -1.08275  -1.07497  -1.07437  -1.07410  -1.06865
 Alpha  occ. eigenvalues --   -1.06844  -1.06798  -1.06267  -1.06222  -1.05309
 Alpha  occ. eigenvalues --   -1.05296  -1.04932  -1.04925  -1.04884  -1.04191
 Alpha  occ. eigenvalues --   -1.04185  -1.04156  -1.04020  -1.04008  -1.03989
 Alpha  occ. eigenvalues --   -1.03932  -1.03874  -1.03857  -1.03746  -1.03693
 Alpha  occ. eigenvalues --   -1.03613  -1.03527  -1.03278  -1.03254  -1.03104
 Alpha  occ. eigenvalues --   -1.03088  -1.03026  -1.02875  -0.94325  -0.86636
 Alpha  occ. eigenvalues --   -0.86603  -0.86514  -0.86448  -0.86446  -0.86441
 Alpha  occ. eigenvalues --   -0.86410  -0.86406  -0.86319  -0.86304  -0.82753
 Alpha  occ. eigenvalues --   -0.79717  -0.70777  -0.69704  -0.67955  -0.64546
 Alpha  occ. eigenvalues --   -0.63921  -0.63863  -0.63834  -0.63204  -0.63184
 Alpha  occ. eigenvalues --   -0.63080  -0.62964  -0.62600  -0.62533  -0.61852
 Alpha  occ. eigenvalues --   -0.61542  -0.61526  -0.61428  -0.61193  -0.61183
 Alpha  occ. eigenvalues --   -0.61131  -0.60368  -0.59425  -0.59394  -0.59390
 Alpha  occ. eigenvalues --   -0.59331  -0.59313  -0.58627  -0.57956  -0.57919
 Alpha  occ. eigenvalues --   -0.57854  -0.56985  -0.56956  -0.56910  -0.56247
 Alpha  occ. eigenvalues --   -0.56214  -0.56075  -0.55698  -0.54854  -0.54800
 Alpha  occ. eigenvalues --   -0.54753  -0.54515  -0.54205  -0.54087  -0.54042
 Alpha  occ. eigenvalues --   -0.53999  -0.53927  -0.53234  -0.53200  -0.53065
 Alpha  occ. eigenvalues --   -0.52999  -0.52879  -0.52691  -0.52668  -0.52627
 Alpha  occ. eigenvalues --   -0.52583  -0.52471  -0.52418  -0.52395  -0.51576
 Alpha  occ. eigenvalues --   -0.51549  -0.51348  -0.51323  -0.51299  -0.51239
 Alpha  occ. eigenvalues --   -0.51178  -0.51130  -0.50986  -0.50782  -0.50605
 Alpha  occ. eigenvalues --   -0.50583  -0.50565  -0.49905  -0.49879  -0.49269
 Alpha  occ. eigenvalues --   -0.49244  -0.49199  -0.49188  -0.49152  -0.49075
 Alpha  occ. eigenvalues --   -0.48879  -0.48053  -0.48013  -0.47887  -0.47586
 Alpha  occ. eigenvalues --   -0.47349  -0.47249  -0.47193  -0.46974  -0.46918
 Alpha  occ. eigenvalues --   -0.46834  -0.46599  -0.46567  -0.46422  -0.46152
 Alpha  occ. eigenvalues --   -0.46100  -0.46044  -0.45567  -0.45073  -0.44899
 Alpha  occ. eigenvalues --   -0.44859  -0.44149  -0.44114  -0.43972  -0.43494
 Alpha  occ. eigenvalues --   -0.43281  -0.43221  -0.43100  -0.43082  -0.43036
 Alpha  occ. eigenvalues --   -0.42718  -0.42704  -0.42661  -0.42576  -0.42566
 Alpha  occ. eigenvalues --   -0.42489  -0.42448  -0.42427  -0.42279  -0.42267
 Alpha  occ. eigenvalues --   -0.42231  -0.42013  -0.41889  -0.41830  -0.41813
 Alpha  occ. eigenvalues --   -0.41188  -0.41161  -0.41112  -0.41027  -0.40546
 Alpha  occ. eigenvalues --   -0.40519  -0.40507  -0.40340  -0.39408  -0.39377
 Alpha  occ. eigenvalues --   -0.36770  -0.32490  -0.28805  -0.24530  -0.24491
 Alpha  occ. eigenvalues --   -0.22996
 Alpha virt. eigenvalues --   -0.09134  -0.08949  -0.08330  -0.08291  -0.06895
 Alpha virt. eigenvalues --   -0.06854  -0.06766  -0.04160  -0.03948  -0.03903
 Alpha virt. eigenvalues --   -0.03628  -0.03433  -0.03360  -0.03162  -0.03035

 Mulliken charges:
               1
     1  Cl  -0.926373
     2  C   -0.081895
     3  C    0.041373
     4  C   -0.078197
     5  C   -0.033769
     6  C   -0.032487
     7  C   -0.050715
     8  H    0.027522
     9  H    0.028894
    10  H    0.040306
    11  H    0.036977
    12  H    0.039297
    13  C   -0.086245
    14  C    0.024516
    15  H    0.016511
    16  H    0.037233
    17  H    0.036541
    18  O   -0.663356
    19  O   -0.660651
    20  O   -0.655550
    21  O   -0.662704
    22  W    1.733682
    23  W    1.671456
    24  W    1.682285
    25  W    1.692070
    26  W    1.674381
    27  W    1.725212
    28  W    1.620431
    29  W    1.683634
    30  O   -0.320686
    31  O   -0.365905
    32  O   -0.365859
    33  O   -0.364042
    34  O   -0.664045
    35  O   -0.670466
    36  O   -0.660886
    37  O   -0.662861
    38  O   -0.366164
    39  O   -0.366568
    40  O   -0.291541
    41  O   -0.365655
    42  O   -0.669971
    43  O   -0.662276
    44  O   -0.658592
    45  O   -0.665372
    46  O   -0.366090
    47  O   -0.320337
    48  O   -0.355058
    49  O   -0.365227
    50  W    1.671213
    51  W    1.674983
    52  W    1.673169
    53  W    1.682668
    54  O   -0.722879
    55  O   -0.705355
    56  O   -0.725196
    57  O   -0.721054
    58  O   -0.704194
    59  O   -0.725585
    60  O   -0.723894
    61  O   -0.720217
    62  O   -0.722800
    63  O   -0.706409
    64  O   -0.721472
    65  O   -0.725398
    66  O   -0.799885
    67  O   -0.799369
    68  O   -0.797321
    69  O   -0.808965
    70  K    0.863508
    71  K    0.862800
    72  K    0.858874
    73  V    1.189994
 Sum of Mulliken charges =  -1.00000

 Dipole moment (field-independent basis, Debye):
    X=             51.9031    Y=            -50.2290    Z=            -38.5639  Tot=             81.8783
 Quadrupole moment (field-independent basis, Debye-Ang):
   XX=          -1074.5114   YY=           -864.6215   ZZ=           -911.8636
   XY=            449.3638   XZ=            465.2180   YZ=           -465.8085

 Normal termination of Gaussian 16 at Sat Jun  1 21:00:44 2024.
