 Gaussian 16, Revision C.01,
 Gaussian 16:  ES64L-G16RevC.01  3-Jul-2019

 ----------------------------------------------------------------------
 # def2svp wb97xd scrf=(smd,solvent=acetonitrile) g09default scf=(xqc,m
 axcycle=64) force guess=read nosymm
 ----------------------------------------------------------------------

 ----------
 Title Card
 ----------
 Symbolic Z-matrix:
 Charge = -1 Multiplicity = 1

                          Input orientation:
 ---------------------------------------------------------------------
 Center     Atomic      Atomic             Coordinates (Angstroms)
 Number     Number       Type             X           Y           Z
 ---------------------------------------------------------------------
      1         17           0       -9.978365    7.875551   10.461246
      2          6           0       -8.307378    4.239625   12.234579
      3          6           0       -9.063624    3.915169   11.093222
      4          6           0      -10.003977    2.875197   11.198003
      5          6           0      -10.188259    2.187275   12.393460
      6          6           0       -9.429804    2.520942   13.515893
      7          6           0       -8.488308    3.548876   13.429610
      8          1           0       -7.574809    5.049036   12.197021
      9          1           0      -10.601636    2.612015   10.320806
     10          1           0      -10.923097    1.380154   12.446050
     11          1           0       -9.558538    1.971271   14.451148
     12          1           0       -7.890381    3.816949   14.304660
     13          6           0       -8.929925    4.623778    9.818214
     14          6           0       -8.107227    5.657848    9.569162
     15          1           0       -9.586480    4.272701    9.014913
     16          1           0       -8.063957    6.114410    8.578630
     17          1           0       -7.387455    6.020320   10.306298
     18          8           0       -1.011565   -1.764435    7.461577
     19          8           0       -8.409906   -1.323634    7.466744
     20          8           0       -7.059791    1.341484   10.487007
     21          8           0       -2.332495   -4.348368   10.559830
     22         74           0       -3.426420    0.743220    6.497414
     23         74           0       -6.011484   -3.826059    6.585324
     24         74           0       -3.634594    0.916442   11.407047
     25         74           0       -5.778052   -3.868100   11.471246
     26         74           0       -2.470587   -2.545903    6.380759
     27         74           0       -6.947803   -0.533877    6.349541
     28         74           0       -6.828421   -0.251770   11.594429
     29         74           0       -2.572283   -2.693870   11.628915
     30          8           0       -3.201355    1.947245    5.337232
     31          8           0       -6.142061   -5.082894    5.451800
     32          8           0       -2.709881    1.770742   12.547031
     33          8           0       -6.694750   -4.682917   12.645557
     34          8           0       -2.698683   -0.866808    5.585862
     35          8           0       -6.716730   -2.269379    5.627070
     36          8           0       -5.323487    0.563859   12.370799
     37          8           0       -4.067543   -3.508941   12.414227
     38          8           0        0.294915   -0.004746    9.275689
     39          8           0       -9.717711   -3.013412    9.333681
     40          8           0       -6.396010    3.415554    8.629377
     41          8           0       -2.963970   -6.448171    8.745672
     42          8           0       -1.811791    0.786201    7.485989
     43          8           0       -7.612528   -3.878939    7.562459
     44          8           0       -4.535333    2.220094   10.424505
     45          8           0       -4.867249   -5.215103   10.522202
     46          8           0       -1.642870   -3.473098    5.222289
     47          8           0       -7.824445    0.267460    5.151178
     48          8           0       -8.037360   -0.176663   12.782804
     49          8           0       -1.340690   -2.802455   12.793887
     50         74           0       -1.266904   -0.515831    8.844086
     51         74           0       -8.158497   -2.509861    8.883608
     52         74           0       -5.932294    1.851923    9.045067
     53         74           0       -3.470029   -4.881724    9.165188
     54          8           0       -4.237915   -3.093264    6.071707
     55          8           0       -5.178390   -0.028829    6.014045
     56          8           0       -6.189133   -2.000725   11.923773
     57          8           0       -3.186908   -0.949751   11.930852
     58          8           0       -4.393887    1.597579    7.847095
     59          8           0       -5.004919   -4.674539    7.928398
     60          8           0       -2.341330    0.600944   10.080728
     61          8           0       -7.068543   -3.609163   10.140434
     62          8           0       -2.580091   -3.871119    7.858503
     63          8           0       -6.846185    0.788676    7.802785
     64          8           0       -7.846730   -1.173716   10.162533
     65          8           0       -1.573250   -1.834253   10.153575
     66          8           0       -3.387198   -1.128314    8.016059
     67          8           0       -6.032733   -1.951816    8.045004
     68          8           0       -5.136691   -0.198538    9.952167
     69          8           0       -4.252901   -2.821733    9.980079
     70         19           0       -3.234362   -6.116336    5.667889
     71         19           0       -0.153353    0.037995   12.347477
     72         19           0       -9.265861   -2.928942   12.407437
     73         23           0       -4.704525   -1.520949    8.995327
 ---------------------------------------------------------------------

 SCF Done:  E(UwB97XD) =  -7327.70034987     A.U. after   38 cycles

 Alpha  occ. eigenvalues --  -19.24543 -18.93722 -18.92637 -18.92591 -13.36463
 Alpha  occ. eigenvalues --  -13.36460 -13.36408 -10.69390 -10.69387 -10.69385
 Alpha  occ. eigenvalues --  -10.69385 -10.69383 -10.69383 -10.69336 -10.69332
 Alpha  occ. eigenvalues --  -10.69329 -10.32881 -10.32285 -10.31770 -10.30877
 Alpha  occ. eigenvalues --  -10.30848 -10.30810 -10.30472 -10.30382  -9.52321
 Alpha  occ. eigenvalues --   -7.27199  -7.26868  -7.26861  -3.21067  -3.21040
 Alpha  occ. eigenvalues --   -3.21038  -3.21030  -3.21008  -3.20992  -3.20981
 Alpha  occ. eigenvalues --   -3.20974  -3.20971  -3.20835  -3.20821  -3.20798
 Alpha  occ. eigenvalues --   -2.78548  -1.85318  -1.85287  -1.85267  -1.85228
 Alpha  occ. eigenvalues --   -1.85112  -1.85069  -1.85047  -1.85027  -1.85018
 Alpha  occ. eigenvalues --   -1.85009  -1.84986  -1.84935  -1.84365  -1.84253
 Alpha  occ. eigenvalues --   -1.84237  -1.84233  -1.84193  -1.84183  -1.84116
 Alpha  occ. eigenvalues --   -1.84102  -1.84075  -1.84070  -1.84044  -1.84033
 Alpha  occ. eigenvalues --   -1.83917  -1.83889  -1.83876  -1.83870  -1.83837
 Alpha  occ. eigenvalues --   -1.83799  -1.83779  -1.83777  -1.83759  -1.83660
 Alpha  occ. eigenvalues --   -1.83659  -1.83644  -1.81742  -1.81403  -1.81381
 Alpha  occ. eigenvalues --   -1.50168  -1.50165  -1.50114  -1.08581  -1.06948
 Alpha  occ. eigenvalues --   -1.06917  -1.06885  -1.05992  -1.05980  -1.05950
 Alpha  occ. eigenvalues --   -1.04557  -1.04547  -1.04535  -1.03947  -1.03924
 Alpha  occ. eigenvalues --   -1.03650  -1.03345  -1.03290  -1.03283  -1.03042
 Alpha  occ. eigenvalues --   -1.03016  -1.02227  -1.02203  -1.02170  -1.02075
 Alpha  occ. eigenvalues --   -1.02037  -1.02001  -1.01936  -1.01911  -1.01794
 Alpha  occ. eigenvalues --   -1.01750  -1.01735  -1.01622  -1.01580  -1.01566
 Alpha  occ. eigenvalues --   -1.01277  -1.00807  -1.00763  -1.00716  -1.00700
 Alpha  occ. eigenvalues --   -0.99944  -0.99878  -0.99809  -0.96068  -0.89225
 Alpha  occ. eigenvalues --   -0.85615  -0.85608  -0.85567  -0.85458  -0.85457
 Alpha  occ. eigenvalues --   -0.85454  -0.85451  -0.85410  -0.85392  -0.84144
 Alpha  occ. eigenvalues --   -0.82308  -0.80814  -0.71828  -0.69500  -0.64981
 Alpha  occ. eigenvalues --   -0.62288  -0.61680  -0.61635  -0.61594  -0.60548
 Alpha  occ. eigenvalues --   -0.58952  -0.58942  -0.58933  -0.58864  -0.58806
 Alpha  occ. eigenvalues --   -0.58729  -0.58717  -0.58671  -0.58520  -0.57319
 Alpha  occ. eigenvalues --   -0.57281  -0.57254  -0.56977  -0.56715  -0.56470
 Alpha  occ. eigenvalues --   -0.56433  -0.56393  -0.55989  -0.55834  -0.55333
 Alpha  occ. eigenvalues --   -0.55327  -0.55292  -0.54330  -0.54193  -0.54164
 Alpha  occ. eigenvalues --   -0.53986  -0.53641  -0.53597  -0.53574  -0.52720
 Alpha  occ. eigenvalues --   -0.52627  -0.52611  -0.52521  -0.52474  -0.51472
 Alpha  occ. eigenvalues --   -0.51461  -0.51443  -0.51363  -0.51305  -0.50676
 Alpha  occ. eigenvalues --   -0.50580  -0.50523  -0.50473  -0.50371  -0.50293
 Alpha  occ. eigenvalues --   -0.50228  -0.50054  -0.50039  -0.50001  -0.49761
 Alpha  occ. eigenvalues --   -0.49692  -0.49662  -0.49494  -0.49460  -0.49308
 Alpha  occ. eigenvalues --   -0.49249  -0.49209  -0.49118  -0.49074  -0.48982
 Alpha  occ. eigenvalues --   -0.48741  -0.48580  -0.48559  -0.48497  -0.47698
 Alpha  occ. eigenvalues --   -0.47683  -0.47112  -0.46486  -0.46042  -0.46027
 Alpha  occ. eigenvalues --   -0.45865  -0.45766  -0.45708  -0.45617  -0.45197
 Alpha  occ. eigenvalues --   -0.45118  -0.45113  -0.44829  -0.44625  -0.44495
 Alpha  occ. eigenvalues --   -0.44470  -0.44448  -0.44257  -0.44255  -0.44234
 Alpha  occ. eigenvalues --   -0.43366  -0.43011  -0.42541  -0.42503  -0.42442
 Alpha  occ. eigenvalues --   -0.42292  -0.42160  -0.42147  -0.42056  -0.41625
 Alpha  occ. eigenvalues --   -0.41600  -0.41555  -0.41027  -0.40990  -0.40796
 Alpha  occ. eigenvalues --   -0.40755  -0.40734  -0.40407  -0.40398  -0.40361
 Alpha  occ. eigenvalues --   -0.40211  -0.40175  -0.40165  -0.40145  -0.39873
 Alpha  occ. eigenvalues --   -0.39336  -0.39257  -0.39228  -0.39143  -0.39007
 Alpha  occ. eigenvalues --   -0.38916  -0.38887  -0.38815  -0.38711  -0.38676
 Alpha  occ. eigenvalues --   -0.38313  -0.38287  -0.38250  -0.37832  -0.37178
 Alpha  occ. eigenvalues --   -0.37171  -0.34553  -0.34529  -0.33535  -0.30055
 Alpha  occ. eigenvalues --   -0.25472
 Alpha virt. eigenvalues --   -0.11747  -0.06227  -0.06196  -0.04770  -0.04711
 Alpha virt. eigenvalues --   -0.04604  -0.01466  -0.01373  -0.01325  -0.01084
 Alpha virt. eigenvalues --   -0.00909  -0.00881  -0.00820  -0.00138  -0.00051

  Beta  occ. eigenvalues -- -197.10431-129.99055-129.99053-129.99012-101.62320
  Beta  occ. eigenvalues --  -22.42889 -19.28518 -19.28510 -19.28471 -19.28388
  Beta  occ. eigenvalues --  -19.28379 -19.28374 -19.28357 -19.28349 -19.28335
  Beta  occ. eigenvalues --  -19.28259 -19.28243 -19.28170 -19.26956 -19.26911
  Beta  occ. eigenvalues --  -19.26904 -19.26901 -19.26874 -19.26871 -19.26855
  Beta  occ. eigenvalues --  -19.26846 -19.26833 -19.26828 -19.26809 -19.26807
  Beta  occ. eigenvalues --  -19.26804 -19.26795 -19.26788 -19.26785 -19.26782
  Beta  occ. eigenvalues --  -19.26765 -19.26746 -19.26717 -19.26712 -19.26704
  Beta  occ. eigenvalues --  -19.26655 -19.26629 -19.24617 -19.24561 -19.24559
  Beta  occ. eigenvalues --  -19.24517 -18.93378 -18.91198 -18.91109 -13.36463
  Beta  occ. eigenvalues --  -13.36460 -13.36408 -10.69390 -10.69387 -10.69385
  Beta  occ. eigenvalues --  -10.69385 -10.69383 -10.69383 -10.69336 -10.69332
  Beta  occ. eigenvalues --  -10.69329 -10.33127 -10.32459 -10.31724 -10.30965
  Beta  occ. eigenvalues --  -10.30954 -10.30897 -10.30423 -10.30331  -9.52773
  Beta  occ. eigenvalues --   -7.28619  -7.27177  -7.27170  -3.21067  -3.21037
  Beta  occ. eigenvalues --   -3.21034  -3.21030  -3.21002  -3.20986  -3.20975
  Beta  occ. eigenvalues --   -3.20967  -3.20964  -3.20835  -3.20818  -3.20793
  Beta  occ. eigenvalues --   -2.74495  -1.85314  -1.85281  -1.85263  -1.85220
  Beta  occ. eigenvalues --   -1.85107  -1.85064  -1.85040  -1.85020  -1.85010
  Beta  occ. eigenvalues --   -1.85000  -1.84982  -1.84927  -1.84362  -1.84251
  Beta  occ. eigenvalues --   -1.84234  -1.84230  -1.84190  -1.84180  -1.84113
  Beta  occ. eigenvalues --   -1.84100  -1.84072  -1.84066  -1.84041  -1.84030
  Beta  occ. eigenvalues --   -1.83915  -1.83886  -1.83873  -1.83866  -1.83834
  Beta  occ. eigenvalues --   -1.83796  -1.83776  -1.83774  -1.83756  -1.83658
  Beta  occ. eigenvalues --   -1.83656  -1.83642  -1.80410  -1.75753  -1.75562
  Beta  occ. eigenvalues --   -1.50168  -1.50165  -1.50114  -1.08564  -1.06929
  Beta  occ. eigenvalues --   -1.06897  -1.06859  -1.05990  -1.05978  -1.05948
  Beta  occ. eigenvalues --   -1.04557  -1.04545  -1.04537  -1.03946  -1.03926
  Beta  occ. eigenvalues --   -1.03584  -1.03313  -1.03258  -1.03248  -1.03041
  Beta  occ. eigenvalues --   -1.03008  -1.02211  -1.02180  -1.02155  -1.02065
  Beta  occ. eigenvalues --   -1.02031  -1.01987  -1.01932  -1.01902  -1.01790
  Beta  occ. eigenvalues --   -1.01747  -1.01732  -1.01622  -1.01577  -1.01553
  Beta  occ. eigenvalues --   -1.01277  -1.00770  -1.00759  -1.00715  -1.00698
  Beta  occ. eigenvalues --   -0.99807  -0.99726  -0.99685  -0.96271  -0.89902
  Beta  occ. eigenvalues --   -0.85615  -0.85608  -0.85567  -0.85458  -0.85457
  Beta  occ. eigenvalues --   -0.85454  -0.85451  -0.85410  -0.85392  -0.84343
  Beta  occ. eigenvalues --   -0.84194  -0.82683  -0.72091  -0.69610  -0.65222
  Beta  occ. eigenvalues --   -0.62288  -0.61679  -0.61634  -0.61594  -0.60735
  Beta  occ. eigenvalues --   -0.58952  -0.58938  -0.58932  -0.58792  -0.58733
  Beta  occ. eigenvalues --   -0.58710  -0.58699  -0.58648  -0.58520  -0.57289
  Beta  occ. eigenvalues --   -0.57133  -0.57086  -0.56968  -0.56860  -0.56472
  Beta  occ. eigenvalues --   -0.56404  -0.56358  -0.55790  -0.55586  -0.55313
  Beta  occ. eigenvalues --   -0.55309  -0.55291  -0.54499  -0.54188  -0.54156
  Beta  occ. eigenvalues --   -0.53977  -0.53617  -0.53573  -0.53531  -0.52765
  Beta  occ. eigenvalues --   -0.52653  -0.52596  -0.52506  -0.52466  -0.51459
  Beta  occ. eigenvalues --   -0.51440  -0.51421  -0.51304  -0.51245  -0.50850
  Beta  occ. eigenvalues --   -0.50487  -0.50460  -0.50406  -0.50316  -0.50256
  Beta  occ. eigenvalues --   -0.50195  -0.50038  -0.50021  -0.49973  -0.49711
  Beta  occ. eigenvalues --   -0.49666  -0.49642  -0.49485  -0.49450  -0.49310
  Beta  occ. eigenvalues --   -0.49226  -0.49210  -0.49083  -0.49060  -0.48960
  Beta  occ. eigenvalues --   -0.48734  -0.48577  -0.48570  -0.48490  -0.47777
  Beta  occ. eigenvalues --   -0.47664  -0.47554  -0.45924  -0.45897  -0.45822
  Beta  occ. eigenvalues --   -0.45794  -0.45687  -0.45574  -0.45199  -0.45152
  Beta  occ. eigenvalues --   -0.45115  -0.45046  -0.44830  -0.44625  -0.44473
  Beta  occ. eigenvalues --   -0.44455  -0.44406  -0.44256  -0.44217  -0.44204
  Beta  occ. eigenvalues --   -0.43358  -0.43103  -0.42501  -0.42468  -0.42402
  Beta  occ. eigenvalues --   -0.42249  -0.42123  -0.42116  -0.42106  -0.41601
  Beta  occ. eigenvalues --   -0.41599  -0.41542  -0.41351  -0.41030  -0.40940
  Beta  occ. eigenvalues --   -0.40743  -0.40710  -0.40654  -0.40389  -0.40386
  Beta  occ. eigenvalues --   -0.40332  -0.40166  -0.40156  -0.40125  -0.39815
  Beta  occ. eigenvalues --   -0.39618  -0.39334  -0.39168  -0.39094  -0.39079
  Beta  occ. eigenvalues --   -0.38884  -0.38858  -0.38807  -0.38701  -0.38661
  Beta  occ. eigenvalues --   -0.38609  -0.38310  -0.38279  -0.38245  -0.37412
  Beta  occ. eigenvalues --   -0.37179  -0.37165  -0.35490  -0.35469  -0.33778
  Beta  occ. eigenvalues --   -0.30706
  Beta virt. eigenvalues --   -0.06226  -0.06197  -0.04769  -0.04710  -0.04603
  Beta virt. eigenvalues --   -0.01463  -0.01368  -0.01320  -0.01078  -0.00904
  Beta virt. eigenvalues --   -0.00878  -0.00817  -0.00137  -0.00040  -0.00015

 Mulliken charges and spin densities:
               1          2
     1  Cl  -0.358660  -0.610117
     2  C   -0.038684  -0.082544
     3  C    0.014889   0.049382
     4  C   -0.036096  -0.079570
     5  C   -0.031844   0.051053
     6  C    0.006055  -0.098874
     7  C   -0.049201   0.050171
     8  H    0.046868   0.003507
     9  H    0.049020   0.003417
    10  H    0.054232  -0.001813
    11  H    0.055703   0.004344
    12  H    0.053096  -0.001752
    13  C    0.001204  -0.215343
    14  C   -0.020101  -0.085549
    15  H    0.073178   0.009250
    16  H    0.095230   0.004542
    17  H    0.093630   0.003899
    18  O   -0.672000  -0.000564
    19  O   -0.669417  -0.000492
    20  O   -0.666494  -0.001923
    21  O   -0.671590  -0.000529
    22  W    1.717246   0.000350
    23  W    1.657202   0.000522
    24  W    1.670148   0.000198
    25  W    1.678181   0.000186
    26  W    1.660426   0.002800
    27  W    1.707331   0.002513
    28  W    1.612114   0.003356
    29  W    1.669233   0.002942
    30  O   -0.350204  -0.000535
    31  O   -0.394148  -0.000574
    32  O   -0.393989  -0.000608
    33  O   -0.392512  -0.000563
    34  O   -0.672337  -0.000295
    35  O   -0.677685  -0.000027
    36  O   -0.669691  -0.000124
    37  O   -0.671729  -0.000212
    38  O   -0.395869   0.002113
    39  O   -0.396499   0.002133
    40  O   -0.339355  -0.001203
    41  O   -0.395582   0.002123
    42  O   -0.677420   0.000068
    43  O   -0.670807   0.000177
    44  O   -0.667129   0.000307
    45  O   -0.673668   0.000103
    46  O   -0.395893   0.002299
    47  O   -0.351592   0.002176
    48  O   -0.387610   0.001753
    49  O   -0.395120   0.002360
    50  W    1.656965   0.002889
    51  W    1.660754   0.002773
    52  W    1.669887   0.003884
    53  W    1.667980   0.002723
    54  O   -0.720799   0.000118
    55  O   -0.703638   0.000016
    56  O   -0.721709   0.000192
    57  O   -0.719094   0.000075
    58  O   -0.701659  -0.000023
    59  O   -0.722838   0.000168
    60  O   -0.721383   0.000218
    61  O   -0.717867   0.000218
    62  O   -0.721216  -0.000175
    63  O   -0.704611  -0.000006
    64  O   -0.720672  -0.000192
    65  O   -0.723387  -0.000204
    66  O   -0.881926   0.005365
    67  O   -0.882154   0.007634
    68  O   -0.880233   0.007379
    69  O   -0.888020   0.006914
    70  K    0.849871   0.000206
    71  K    0.849307   0.000229
    72  K    0.844919   0.000257
    73  V    1.199460   0.934508
 Sum of Mulliken charges =  -1.00000  -0.00000

 Dipole moment (field-independent basis, Debye):
    X=             29.4265    Y=            -13.6690    Z=            -30.8830  Tot=             44.7942
 Quadrupole moment (field-independent basis, Debye-Ang):
   XX=           -782.7356   YY=           -700.0338   ZZ=           -785.7245
   XY=            131.7927   XZ=            189.5088   YZ=            -93.1892

 Normal termination of Gaussian 16 at Sat Jun  1 20:50:10 2024.
