 Gaussian 16, Revision C.01,
 Gaussian 16:  ES64L-G16RevC.01  3-Jul-2019

 ----------------------------------------------------------------------
 # def2svp wb97xd scrf=(smd,solvent=acetonitrile) g09default scf=(xqc,m
 axcycle=64) force guess=read nosymm
 ----------------------------------------------------------------------

 ----------
 Title Card
 ----------
 Symbolic Z-matrix:
 Charge = -1 Multiplicity = 1

                          Input orientation:
 ---------------------------------------------------------------------
 Center     Atomic      Atomic             Coordinates (Angstroms)
 Number     Number       Type             X           Y           Z
 ---------------------------------------------------------------------
      1         17           0       -9.981017    7.891633   10.465797
      2          6           0       -8.307206    4.239172   12.234308
      3          6           0       -9.065290    3.915241   11.093368
      4          6           0      -10.004173    2.873732   11.198021
      5          6           0      -10.187869    2.186220   12.392996
      6          6           0       -9.429422    2.520565   13.515666
      7          6           0       -8.487679    3.548313   13.428907
      8          1           0       -7.574072    5.047753   12.196033
      9          1           0      -10.601897    2.609585   10.320753
     10          1           0      -10.924074    1.380380   12.447720
     11          1           0       -9.559247    1.972720   14.451366
     12          1           0       -7.891185    3.817620   14.304494
     13          6           0       -8.932657    4.625807    9.819556
     14          6           0       -8.112191    5.660404    9.570230
     15          1           0       -9.584908    4.268963    9.014589
     16          1           0       -8.065319    6.113335    8.578196
     17          1           0       -7.388984    6.021611   10.305527
     18          8           0       -1.010986   -1.763691    7.460633
     19          8           0       -8.410706   -1.324335    7.466011
     20          8           0       -7.058735    1.342433   10.487379
     21          8           0       -2.332381   -4.349605   10.560320
     22         74           0       -3.425161    0.742965    6.496166
     23         74           0       -6.011901   -3.826945    6.584892
     24         74           0       -3.633742    0.917229   11.408106
     25         74           0       -5.778564   -3.868713   11.471786
     26         74           0       -2.470599   -2.546247    6.380430
     27         74           0       -6.946723   -0.534871    6.349492
     28         74           0       -6.828021   -0.251315   11.594473
     29         74           0       -2.572638   -2.694253   11.629272
     30          8           0       -3.199679    1.946025    5.334539
     31          8           0       -6.143434   -5.082714    5.448770
     32          8           0       -2.710946    1.771353   12.550013
     33          8           0       -6.693423   -4.684234   12.647935
     34          8           0       -2.698107   -0.867088    5.585001
     35          8           0       -6.717005   -2.269893    5.626632
     36          8           0       -5.323345    0.564378   12.370866
     37          8           0       -4.067201   -3.509611   12.414270
     38          8           0        0.295078   -0.003683    9.274185
     39          8           0       -9.718001   -3.014497    9.331756
     40          8           0       -6.393479    3.416007    8.630393
     41          8           0       -2.964472   -6.449434    8.747028
     42          8           0       -1.810832    0.785630    7.484877
     43          8           0       -7.612785   -3.878900    7.561554
     44          8           0       -4.534587    2.220169   10.425276
     45          8           0       -4.866825   -5.215144   10.522921
     46          8           0       -1.640583   -3.472794    5.223027
     47          8           0       -7.826661    0.266913    5.152267
     48          8           0       -8.037960   -0.174112   12.781321
     49          8           0       -1.339840   -2.805382   12.793335
     50         74           0       -1.266370   -0.516092    8.843744
     51         74           0       -8.158749   -2.509632    8.882846
     52         74           0       -5.931330    1.852099    9.044906
     53         74           0       -3.469850   -4.881897    9.165991
     54          8           0       -4.237906   -3.092886    6.071287
     55          8           0       -5.177992   -0.028969    6.012872
     56          8           0       -6.188815   -2.000684   11.923948
     57          8           0       -3.186774   -0.949994   11.931798
     58          8           0       -4.392123    1.595877    7.847164
     59          8           0       -5.005659   -4.674948    7.927600
     60          8           0       -2.341509    0.601480   10.081272
     61          8           0       -7.068163   -3.610137   10.140770
     62          8           0       -2.580537   -3.871365    7.858734
     63          8           0       -6.844840    0.788156    7.802966
     64          8           0       -7.846125   -1.174066   10.161976
     65          8           0       -1.573757   -1.833995   10.153221
     66          8           0       -3.386529   -1.129152    8.016068
     67          8           0       -6.033097   -1.950927    8.044563
     68          8           0       -5.137564   -0.198406    9.951648
     69          8           0       -4.252027   -2.821975    9.979610
     70         19           0       -3.233728   -6.118736    5.666163
     71         19           0       -0.151007    0.039247   12.349244
     72         19           0       -9.268342   -2.928842   12.409853
     73         23           0       -4.704549   -1.521262    8.995175
 ---------------------------------------------------------------------

 SCF Done:  E(RwB97XD) =  -7327.70002396     A.U. after   12 cycles

 Alpha  occ. eigenvalues -- -197.29047-130.00088-130.00056-129.99974-101.47600
 Alpha  occ. eigenvalues --  -22.62211 -19.33486 -19.33477 -19.33469 -19.33445
 Alpha  occ. eigenvalues --  -19.30707 -19.30678 -19.30675 -19.30667 -19.30663
 Alpha  occ. eigenvalues --  -19.30649 -19.30630 -19.30594 -19.30503 -19.30322
 Alpha  occ. eigenvalues --  -19.30302 -19.30052 -19.29323 -19.29315 -19.29289
 Alpha  occ. eigenvalues --  -19.29285 -19.29276 -19.29270 -19.29262 -19.29209
 Alpha  occ. eigenvalues --  -19.29184 -19.29154 -19.29150 -19.29135 -19.29111
 Alpha  occ. eigenvalues --  -19.29111 -19.29093 -19.29087 -19.29077 -19.29066
 Alpha  occ. eigenvalues --  -19.29037 -19.29004 -19.28968 -19.28946 -19.28935
 Alpha  occ. eigenvalues --  -19.28701 -19.11162 -19.11154 -19.11146 -13.37489
 Alpha  occ. eigenvalues --  -13.37458 -13.37363 -10.70419 -10.70412 -10.70411
 Alpha  occ. eigenvalues --  -10.70387 -10.70380 -10.70380 -10.70294 -10.70287
 Alpha  occ. eigenvalues --  -10.70285 -10.29768 -10.29306 -10.29242 -10.29039
 Alpha  occ. eigenvalues --  -10.28938 -10.28911 -10.28029 -10.27407  -9.38060
 Alpha  occ. eigenvalues --   -7.12882  -7.12842  -7.12839  -3.23287  -3.23270
 Alpha  occ. eigenvalues --   -3.23263  -3.23258  -3.23253  -3.23247  -3.23188
 Alpha  occ. eigenvalues --   -3.23183  -3.23134  -3.22909  -3.22899  -3.22628
 Alpha  occ. eigenvalues --   -2.91556  -1.93967  -1.93937  -1.93922  -1.87699
 Alpha  occ. eigenvalues --   -1.87633  -1.87616  -1.87553  -1.87467  -1.87454
 Alpha  occ. eigenvalues --   -1.87440  -1.87409  -1.87359  -1.87224  -1.87192
 Alpha  occ. eigenvalues --   -1.86986  -1.86596  -1.86477  -1.86468  -1.86445
 Alpha  occ. eigenvalues --   -1.86421  -1.86375  -1.86306  -1.86285  -1.86268
 Alpha  occ. eigenvalues --   -1.86254  -1.86223  -1.86189  -1.86119  -1.86088
 Alpha  occ. eigenvalues --   -1.86085  -1.86056  -1.86015  -1.85957  -1.85940
 Alpha  occ. eigenvalues --   -1.85879  -1.85842  -1.85751  -1.85608  -1.85528
 Alpha  occ. eigenvalues --   -1.51178  -1.51148  -1.51054  -1.12926  -1.11152
 Alpha  occ. eigenvalues --   -1.11052  -1.11044  -1.08900  -1.08492  -1.08439
 Alpha  occ. eigenvalues --   -1.08268  -1.07494  -1.07434  -1.07404  -1.06861
 Alpha  occ. eigenvalues --   -1.06839  -1.06793  -1.06264  -1.06218  -1.05305
 Alpha  occ. eigenvalues --   -1.05294  -1.04932  -1.04923  -1.04884  -1.04186
 Alpha  occ. eigenvalues --   -1.04181  -1.04151  -1.04010  -1.03999  -1.03983
 Alpha  occ. eigenvalues --   -1.03926  -1.03872  -1.03853  -1.03741  -1.03693
 Alpha  occ. eigenvalues --   -1.03606  -1.03528  -1.03271  -1.03233  -1.03106
 Alpha  occ. eigenvalues --   -1.03089  -1.03024  -1.02882  -0.94334  -0.86646
 Alpha  occ. eigenvalues --   -0.86617  -0.86530  -0.86469  -0.86457  -0.86451
 Alpha  occ. eigenvalues --   -0.86424  -0.86421  -0.86336  -0.86321  -0.82771
 Alpha  occ. eigenvalues --   -0.79735  -0.70770  -0.69722  -0.67960  -0.64539
 Alpha  occ. eigenvalues --   -0.63914  -0.63855  -0.63828  -0.63201  -0.63179
 Alpha  occ. eigenvalues --   -0.63071  -0.62973  -0.62593  -0.62522  -0.61847
 Alpha  occ. eigenvalues --   -0.61535  -0.61519  -0.61422  -0.61187  -0.61177
 Alpha  occ. eigenvalues --   -0.61126  -0.60361  -0.59416  -0.59387  -0.59383
 Alpha  occ. eigenvalues --   -0.59325  -0.59307  -0.58635  -0.57949  -0.57912
 Alpha  occ. eigenvalues --   -0.57848  -0.56980  -0.56949  -0.56904  -0.56241
 Alpha  occ. eigenvalues --   -0.56203  -0.56067  -0.55689  -0.54844  -0.54790
 Alpha  occ. eigenvalues --   -0.54743  -0.54530  -0.54200  -0.54081  -0.54039
 Alpha  occ. eigenvalues --   -0.53996  -0.53917  -0.53230  -0.53194  -0.53061
 Alpha  occ. eigenvalues --   -0.52992  -0.52872  -0.52692  -0.52664  -0.52621
 Alpha  occ. eigenvalues --   -0.52575  -0.52473  -0.52415  -0.52405  -0.51568
 Alpha  occ. eigenvalues --   -0.51544  -0.51343  -0.51315  -0.51291  -0.51231
 Alpha  occ. eigenvalues --   -0.51164  -0.51123  -0.50981  -0.50776  -0.50593
 Alpha  occ. eigenvalues --   -0.50579  -0.50560  -0.49899  -0.49877  -0.49266
 Alpha  occ. eigenvalues --   -0.49242  -0.49203  -0.49195  -0.49143  -0.49067
 Alpha  occ. eigenvalues --   -0.48872  -0.48049  -0.48005  -0.47885  -0.47617
 Alpha  occ. eigenvalues --   -0.47345  -0.47249  -0.47194  -0.46974  -0.46919
 Alpha  occ. eigenvalues --   -0.46834  -0.46596  -0.46563  -0.46419  -0.46151
 Alpha  occ. eigenvalues --   -0.46098  -0.46042  -0.45572  -0.45069  -0.44893
 Alpha  occ. eigenvalues --   -0.44854  -0.44145  -0.44114  -0.43969  -0.43494
 Alpha  occ. eigenvalues --   -0.43277  -0.43218  -0.43097  -0.43078  -0.43036
 Alpha  occ. eigenvalues --   -0.42716  -0.42702  -0.42658  -0.42574  -0.42564
 Alpha  occ. eigenvalues --   -0.42485  -0.42446  -0.42422  -0.42274  -0.42263
 Alpha  occ. eigenvalues --   -0.42229  -0.42011  -0.41885  -0.41827  -0.41815
 Alpha  occ. eigenvalues --   -0.41190  -0.41168  -0.41125  -0.41029  -0.40543
 Alpha  occ. eigenvalues --   -0.40519  -0.40504  -0.40330  -0.39410  -0.39378
 Alpha  occ. eigenvalues --   -0.36790  -0.32506  -0.28808  -0.24524  -0.24486
 Alpha  occ. eigenvalues --   -0.23027
 Alpha virt. eigenvalues --   -0.09146  -0.08950  -0.08329  -0.08286  -0.06898
 Alpha virt. eigenvalues --   -0.06851  -0.06762  -0.04178  -0.03949  -0.03906
 Alpha virt. eigenvalues --   -0.03631  -0.03447  -0.03370  -0.03166  -0.03034

 Mulliken charges:
               1
     1  Cl  -0.927360
     2  C   -0.081079
     3  C    0.040657
     4  C   -0.077659
     5  C   -0.033754
     6  C   -0.032192
     7  C   -0.050729
     8  H    0.027572
     9  H    0.029148
    10  H    0.040355
    11  H    0.036830
    12  H    0.039275
    13  C   -0.086496
    14  C    0.022681
    15  H    0.017153
    16  H    0.037758
    17  H    0.036984
    18  O   -0.663300
    19  O   -0.660320
    20  O   -0.655550
    21  O   -0.662407
    22  W    1.733304
    23  W    1.670698
    24  W    1.681251
    25  W    1.691223
    26  W    1.674157
    27  W    1.725219
    28  W    1.620407
    29  W    1.683402
    30  O   -0.320920
    31  O   -0.366468
    32  O   -0.365843
    33  O   -0.364237
    34  O   -0.663978
    35  O   -0.670246
    36  O   -0.660801
    37  O   -0.662626
    38  O   -0.365841
    39  O   -0.366413
    40  O   -0.291400
    41  O   -0.365971
    42  O   -0.669894
    43  O   -0.662083
    44  O   -0.658459
    45  O   -0.665294
    46  O   -0.365933
    47  O   -0.321174
    48  O   -0.354675
    49  O   -0.365301
    50  W    1.670994
    51  W    1.674642
    52  W    1.673626
    53  W    1.682684
    54  O   -0.722677
    55  O   -0.705138
    56  O   -0.725251
    57  O   -0.720929
    58  O   -0.704275
    59  O   -0.725327
    60  O   -0.723760
    61  O   -0.719931
    62  O   -0.722770
    63  O   -0.706405
    64  O   -0.721409
    65  O   -0.725342
    66  O   -0.799731
    67  O   -0.799660
    68  O   -0.797012
    69  O   -0.808863
    70  K    0.863887
    71  K    0.863255
    72  K    0.859427
    73  V    1.190294
 Sum of Mulliken charges =  -1.00000

 Dipole moment (field-independent basis, Debye):
    X=             51.9402    Y=            -50.3362    Z=            -38.5273  Tot=             81.9504
 Quadrupole moment (field-independent basis, Debye-Ang):
   XX=          -1074.8491   YY=           -866.0939   ZZ=           -911.1392
   XY=            450.6102   XZ=            465.3034   YZ=           -467.0005

 Normal termination of Gaussian 16 at Sat Jun  1 21:37:09 2024.
