 Gaussian 16, Revision C.01,
 Gaussian 16:  ES64L-G16RevC.01  3-Jul-2019

 ----------------------------------------------------------------------
 # def2svp wb97xd scrf=(smd,solvent=acetonitrile) g09default scf=(xqc,m
 axcycle=64) force guess=read nosymm
 ----------------------------------------------------------------------

 ----------
 Title Card
 ----------
 Symbolic Z-matrix:
 Charge = -1 Multiplicity = 1

                          Input orientation:
 ---------------------------------------------------------------------
 Center     Atomic      Atomic             Coordinates (Angstroms)
 Number     Number       Type             X           Y           Z
 ---------------------------------------------------------------------
      1         17           0       -9.981017    7.891633   10.465797
      2          6           0       -8.307206    4.239172   12.234308
      3          6           0       -9.065290    3.915241   11.093368
      4          6           0      -10.004173    2.873732   11.198021
      5          6           0      -10.187869    2.186220   12.392996
      6          6           0       -9.429422    2.520565   13.515666
      7          6           0       -8.487679    3.548313   13.428907
      8          1           0       -7.574072    5.047753   12.196033
      9          1           0      -10.601897    2.609585   10.320753
     10          1           0      -10.924074    1.380380   12.447720
     11          1           0       -9.559247    1.972720   14.451366
     12          1           0       -7.891185    3.817620   14.304494
     13          6           0       -8.932657    4.625807    9.819556
     14          6           0       -8.112191    5.660404    9.570230
     15          1           0       -9.584908    4.268963    9.014589
     16          1           0       -8.065319    6.113335    8.578196
     17          1           0       -7.388984    6.021611   10.305527
     18          8           0       -1.010986   -1.763691    7.460633
     19          8           0       -8.410706   -1.324335    7.466011
     20          8           0       -7.058735    1.342433   10.487379
     21          8           0       -2.332381   -4.349605   10.560320
     22         74           0       -3.425161    0.742965    6.496166
     23         74           0       -6.011901   -3.826945    6.584892
     24         74           0       -3.633742    0.917229   11.408106
     25         74           0       -5.778564   -3.868713   11.471786
     26         74           0       -2.470599   -2.546247    6.380430
     27         74           0       -6.946723   -0.534871    6.349492
     28         74           0       -6.828021   -0.251315   11.594473
     29         74           0       -2.572638   -2.694253   11.629272
     30          8           0       -3.199679    1.946025    5.334539
     31          8           0       -6.143434   -5.082714    5.448770
     32          8           0       -2.710946    1.771353   12.550013
     33          8           0       -6.693423   -4.684234   12.647935
     34          8           0       -2.698107   -0.867088    5.585001
     35          8           0       -6.717005   -2.269893    5.626632
     36          8           0       -5.323345    0.564378   12.370866
     37          8           0       -4.067201   -3.509611   12.414270
     38          8           0        0.295078   -0.003683    9.274185
     39          8           0       -9.718001   -3.014497    9.331756
     40          8           0       -6.393479    3.416007    8.630393
     41          8           0       -2.964472   -6.449434    8.747028
     42          8           0       -1.810832    0.785630    7.484877
     43          8           0       -7.612785   -3.878900    7.561554
     44          8           0       -4.534587    2.220169   10.425276
     45          8           0       -4.866825   -5.215144   10.522921
     46          8           0       -1.640583   -3.472794    5.223027
     47          8           0       -7.826661    0.266913    5.152267
     48          8           0       -8.037960   -0.174112   12.781321
     49          8           0       -1.339840   -2.805382   12.793335
     50         74           0       -1.266370   -0.516092    8.843744
     51         74           0       -8.158749   -2.509632    8.882846
     52         74           0       -5.931330    1.852099    9.044906
     53         74           0       -3.469850   -4.881897    9.165991
     54          8           0       -4.237906   -3.092886    6.071287
     55          8           0       -5.177992   -0.028969    6.012872
     56          8           0       -6.188815   -2.000684   11.923948
     57          8           0       -3.186774   -0.949994   11.931798
     58          8           0       -4.392123    1.595877    7.847164
     59          8           0       -5.005659   -4.674948    7.927600
     60          8           0       -2.341509    0.601480   10.081272
     61          8           0       -7.068163   -3.610137   10.140770
     62          8           0       -2.580537   -3.871365    7.858734
     63          8           0       -6.844840    0.788156    7.802966
     64          8           0       -7.846125   -1.174066   10.161976
     65          8           0       -1.573757   -1.833995   10.153221
     66          8           0       -3.386529   -1.129152    8.016068
     67          8           0       -6.033097   -1.950927    8.044563
     68          8           0       -5.137564   -0.198406    9.951648
     69          8           0       -4.252027   -2.821975    9.979610
     70         19           0       -3.233728   -6.118736    5.666163
     71         19           0       -0.151007    0.039247   12.349244
     72         19           0       -9.268342   -2.928842   12.409853
     73         23           0       -4.704549   -1.521262    8.995175
 ---------------------------------------------------------------------

 SCF Done:  E(UwB97XD) =  -7327.70018024     A.U. after   35 cycles

 Alpha  occ. eigenvalues --  -19.24556 -18.93735 -18.92649 -18.92608 -13.36481
 Alpha  occ. eigenvalues --  -13.36474 -13.36429 -10.69408 -10.69404 -10.69403
 Alpha  occ. eigenvalues --  -10.69401 -10.69397 -10.69396 -10.69357 -10.69353
 Alpha  occ. eigenvalues --  -10.69351 -10.32855 -10.32249 -10.31770 -10.30873
 Alpha  occ. eigenvalues --  -10.30845 -10.30808 -10.30465 -10.30378  -9.52390
 Alpha  occ. eigenvalues --   -7.27269  -7.26935  -7.26928  -3.21063  -3.21039
 Alpha  occ. eigenvalues --   -3.21039  -3.21033  -3.21007  -3.20994  -3.20984
 Alpha  occ. eigenvalues --   -3.20975  -3.20972  -3.20834  -3.20820  -3.20798
 Alpha  occ. eigenvalues --   -2.78555  -1.85316  -1.85281  -1.85257  -1.85227
 Alpha  occ. eigenvalues --   -1.85111  -1.85064  -1.85042  -1.85026  -1.85016
 Alpha  occ. eigenvalues --   -1.85008  -1.84984  -1.84921  -1.84364  -1.84252
 Alpha  occ. eigenvalues --   -1.84237  -1.84233  -1.84193  -1.84184  -1.84115
 Alpha  occ. eigenvalues --   -1.84101  -1.84075  -1.84069  -1.84044  -1.84033
 Alpha  occ. eigenvalues --   -1.83915  -1.83889  -1.83877  -1.83871  -1.83836
 Alpha  occ. eigenvalues --   -1.83798  -1.83780  -1.83777  -1.83758  -1.83659
 Alpha  occ. eigenvalues --   -1.83657  -1.83644  -1.81747  -1.81406  -1.81386
 Alpha  occ. eigenvalues --   -1.50186  -1.50177  -1.50133  -1.08574  -1.06941
 Alpha  occ. eigenvalues --   -1.06911  -1.06882  -1.05985  -1.05972  -1.05943
 Alpha  occ. eigenvalues --   -1.04552  -1.04542  -1.04530  -1.03943  -1.03920
 Alpha  occ. eigenvalues --   -1.03642  -1.03335  -1.03285  -1.03274  -1.03036
 Alpha  occ. eigenvalues --   -1.03011  -1.02222  -1.02202  -1.02170  -1.02073
 Alpha  occ. eigenvalues --   -1.02027  -1.01995  -1.01931  -1.01903  -1.01789
 Alpha  occ. eigenvalues --   -1.01746  -1.01731  -1.01620  -1.01572  -1.01551
 Alpha  occ. eigenvalues --   -1.01278  -1.00800  -1.00761  -1.00713  -1.00698
 Alpha  occ. eigenvalues --   -0.99942  -0.99872  -0.99806  -0.96064  -0.89222
 Alpha  occ. eigenvalues --   -0.85630  -0.85620  -0.85585  -0.85475  -0.85471
 Alpha  occ. eigenvalues --   -0.85469  -0.85463  -0.85429  -0.85412  -0.84153
 Alpha  occ. eigenvalues --   -0.82300  -0.80859  -0.71827  -0.69492  -0.64972
 Alpha  occ. eigenvalues --   -0.62280  -0.61671  -0.61626  -0.61587  -0.60538
 Alpha  occ. eigenvalues --   -0.58945  -0.58934  -0.58927  -0.58857  -0.58797
 Alpha  occ. eigenvalues --   -0.58721  -0.58712  -0.58665  -0.58511  -0.57312
 Alpha  occ. eigenvalues --   -0.57277  -0.57248  -0.56969  -0.56712  -0.56460
 Alpha  occ. eigenvalues --   -0.56423  -0.56382  -0.55979  -0.55827  -0.55325
 Alpha  occ. eigenvalues --   -0.55322  -0.55285  -0.54325  -0.54182  -0.54152
 Alpha  occ. eigenvalues --   -0.53975  -0.53637  -0.53595  -0.53568  -0.52708
 Alpha  occ. eigenvalues --   -0.52613  -0.52599  -0.52510  -0.52462  -0.51468
 Alpha  occ. eigenvalues --   -0.51457  -0.51437  -0.51362  -0.51303  -0.50680
 Alpha  occ. eigenvalues --   -0.50573  -0.50516  -0.50467  -0.50361  -0.50279
 Alpha  occ. eigenvalues --   -0.50234  -0.50057  -0.50030  -0.50000  -0.49759
 Alpha  occ. eigenvalues --   -0.49683  -0.49654  -0.49486  -0.49454  -0.49300
 Alpha  occ. eigenvalues --   -0.49244  -0.49197  -0.49107  -0.49065  -0.48972
 Alpha  occ. eigenvalues --   -0.48730  -0.48568  -0.48550  -0.48485  -0.47693
 Alpha  occ. eigenvalues --   -0.47679  -0.47111  -0.46477  -0.46035  -0.46021
 Alpha  occ. eigenvalues --   -0.45862  -0.45758  -0.45682  -0.45606  -0.45194
 Alpha  occ. eigenvalues --   -0.45118  -0.45113  -0.44829  -0.44625  -0.44489
 Alpha  occ. eigenvalues --   -0.44467  -0.44442  -0.44253  -0.44248  -0.44228
 Alpha  occ. eigenvalues --   -0.43366  -0.43014  -0.42539  -0.42498  -0.42434
 Alpha  occ. eigenvalues --   -0.42290  -0.42154  -0.42140  -0.42038  -0.41622
 Alpha  occ. eigenvalues --   -0.41596  -0.41549  -0.41023  -0.40987  -0.40792
 Alpha  occ. eigenvalues --   -0.40749  -0.40730  -0.40407  -0.40397  -0.40356
 Alpha  occ. eigenvalues --   -0.40207  -0.40172  -0.40162  -0.40138  -0.39866
 Alpha  occ. eigenvalues --   -0.39334  -0.39254  -0.39228  -0.39140  -0.39007
 Alpha  occ. eigenvalues --   -0.38917  -0.38887  -0.38813  -0.38705  -0.38672
 Alpha  occ. eigenvalues --   -0.38308  -0.38284  -0.38246  -0.37837  -0.37178
 Alpha  occ. eigenvalues --   -0.37173  -0.34599  -0.34576  -0.33545  -0.30028
 Alpha  occ. eigenvalues --   -0.25487
 Alpha virt. eigenvalues --   -0.11813  -0.06226  -0.06189  -0.04772  -0.04707
 Alpha virt. eigenvalues --   -0.04600  -0.01475  -0.01383  -0.01332  -0.01079
 Alpha virt. eigenvalues --   -0.00910  -0.00879  -0.00820  -0.00138  -0.00052

  Beta  occ. eigenvalues -- -197.10446-129.99073-129.99066-129.99033-101.62391
  Beta  occ. eigenvalues --  -22.42903 -19.28516 -19.28498 -19.28466 -19.28392
  Beta  occ. eigenvalues --  -19.28382 -19.28369 -19.28350 -19.28349 -19.28336
  Beta  occ. eigenvalues --  -19.28255 -19.28248 -19.28148 -19.26956 -19.26911
  Beta  occ. eigenvalues --  -19.26904 -19.26898 -19.26876 -19.26875 -19.26853
  Beta  occ. eigenvalues --  -19.26842 -19.26841 -19.26829 -19.26811 -19.26809
  Beta  occ. eigenvalues --  -19.26801 -19.26794 -19.26791 -19.26786 -19.26784
  Beta  occ. eigenvalues --  -19.26774 -19.26753 -19.26722 -19.26712 -19.26700
  Beta  occ. eigenvalues --  -19.26656 -19.26634 -19.24626 -19.24554 -19.24547
  Beta  occ. eigenvalues --  -19.24530 -18.93391 -18.91208 -18.91128 -13.36481
  Beta  occ. eigenvalues --  -13.36474 -13.36429 -10.69408 -10.69404 -10.69403
  Beta  occ. eigenvalues --  -10.69401 -10.69397 -10.69396 -10.69357 -10.69353
  Beta  occ. eigenvalues --  -10.69350 -10.33098 -10.32422 -10.31725 -10.30961
  Beta  occ. eigenvalues --  -10.30951 -10.30894 -10.30415 -10.30327  -9.52844
  Beta  occ. eigenvalues --   -7.28696  -7.27246  -7.27238  -3.21063  -3.21039
  Beta  occ. eigenvalues --   -3.21033  -3.21031  -3.21000  -3.20988  -3.20978
  Beta  occ. eigenvalues --   -3.20969  -3.20965  -3.20834  -3.20817  -3.20793
  Beta  occ. eigenvalues --   -2.74501  -1.85311  -1.85276  -1.85253  -1.85219
  Beta  occ. eigenvalues --   -1.85105  -1.85059  -1.85035  -1.85020  -1.85008
  Beta  occ. eigenvalues --   -1.84999  -1.84980  -1.84912  -1.84361  -1.84250
  Beta  occ. eigenvalues --   -1.84234  -1.84230  -1.84189  -1.84180  -1.84112
  Beta  occ. eigenvalues --   -1.84099  -1.84072  -1.84066  -1.84041  -1.84030
  Beta  occ. eigenvalues --   -1.83913  -1.83886  -1.83875  -1.83868  -1.83833
  Beta  occ. eigenvalues --   -1.83795  -1.83776  -1.83774  -1.83755  -1.83656
  Beta  occ. eigenvalues --   -1.83655  -1.83641  -1.80414  -1.75745  -1.75575
  Beta  occ. eigenvalues --   -1.50186  -1.50177  -1.50133  -1.08557  -1.06922
  Beta  occ. eigenvalues --   -1.06891  -1.06856  -1.05983  -1.05970  -1.05942
  Beta  occ. eigenvalues --   -1.04552  -1.04541  -1.04532  -1.03942  -1.03922
  Beta  occ. eigenvalues --   -1.03576  -1.03304  -1.03251  -1.03242  -1.03034
  Beta  occ. eigenvalues --   -1.03003  -1.02205  -1.02179  -1.02155  -1.02063
  Beta  occ. eigenvalues --   -1.02021  -1.01982  -1.01927  -1.01894  -1.01784
  Beta  occ. eigenvalues --   -1.01743  -1.01728  -1.01620  -1.01570  -1.01536
  Beta  occ. eigenvalues --   -1.01278  -1.00766  -1.00754  -1.00713  -1.00696
  Beta  occ. eigenvalues --   -0.99805  -0.99718  -0.99684  -0.96266  -0.89893
  Beta  occ. eigenvalues --   -0.85630  -0.85620  -0.85585  -0.85474  -0.85471
  Beta  occ. eigenvalues --   -0.85469  -0.85463  -0.85429  -0.85412  -0.84386
  Beta  occ. eigenvalues --   -0.84217  -0.82677  -0.72087  -0.69602  -0.65210
  Beta  occ. eigenvalues --   -0.62280  -0.61671  -0.61626  -0.61586  -0.60724
  Beta  occ. eigenvalues --   -0.58945  -0.58931  -0.58926  -0.58783  -0.58726
  Beta  occ. eigenvalues --   -0.58703  -0.58693  -0.58641  -0.58511  -0.57284
  Beta  occ. eigenvalues --   -0.57127  -0.57081  -0.56962  -0.56853  -0.56462
  Beta  occ. eigenvalues --   -0.56393  -0.56347  -0.55783  -0.55575  -0.55306
  Beta  occ. eigenvalues --   -0.55303  -0.55285  -0.54493  -0.54178  -0.54144
  Beta  occ. eigenvalues --   -0.53965  -0.53612  -0.53570  -0.53526  -0.52750
  Beta  occ. eigenvalues --   -0.52642  -0.52585  -0.52495  -0.52454  -0.51456
  Beta  occ. eigenvalues --   -0.51435  -0.51415  -0.51300  -0.51246  -0.50853
  Beta  occ. eigenvalues --   -0.50481  -0.50454  -0.50403  -0.50314  -0.50242
  Beta  occ. eigenvalues --   -0.50185  -0.50031  -0.50023  -0.49971  -0.49708
  Beta  occ. eigenvalues --   -0.49658  -0.49633  -0.49477  -0.49443  -0.49302
  Beta  occ. eigenvalues --   -0.49221  -0.49199  -0.49075  -0.49049  -0.48949
  Beta  occ. eigenvalues --   -0.48723  -0.48571  -0.48554  -0.48477  -0.47772
  Beta  occ. eigenvalues --   -0.47657  -0.47549  -0.45911  -0.45890  -0.45800
  Beta  occ. eigenvalues --   -0.45789  -0.45679  -0.45566  -0.45195  -0.45149
  Beta  occ. eigenvalues --   -0.45116  -0.45039  -0.44829  -0.44625  -0.44470
  Beta  occ. eigenvalues --   -0.44449  -0.44400  -0.44252  -0.44210  -0.44198
  Beta  occ. eigenvalues --   -0.43359  -0.43105  -0.42496  -0.42465  -0.42395
  Beta  occ. eigenvalues --   -0.42245  -0.42112  -0.42102  -0.42101  -0.41599
  Beta  occ. eigenvalues --   -0.41594  -0.41538  -0.41346  -0.41027  -0.40937
  Beta  occ. eigenvalues --   -0.40739  -0.40704  -0.40653  -0.40389  -0.40385
  Beta  occ. eigenvalues --   -0.40328  -0.40163  -0.40151  -0.40122  -0.39808
  Beta  occ. eigenvalues --   -0.39618  -0.39333  -0.39163  -0.39094  -0.39077
  Beta  occ. eigenvalues --   -0.38884  -0.38858  -0.38806  -0.38700  -0.38657
  Beta  occ. eigenvalues --   -0.38612  -0.38306  -0.38276  -0.38241  -0.37467
  Beta  occ. eigenvalues --   -0.37179  -0.37167  -0.35542  -0.35522  -0.33786
  Beta  occ. eigenvalues --   -0.30713
  Beta virt. eigenvalues --   -0.06224  -0.06190  -0.04771  -0.04706  -0.04599
  Beta virt. eigenvalues --   -0.01471  -0.01378  -0.01327  -0.01073  -0.00904
  Beta virt. eigenvalues --   -0.00876  -0.00817  -0.00137  -0.00042  -0.00017

 Mulliken charges and spin densities:
               1          2
     1  Cl  -0.355983  -0.613462
     2  C   -0.038218  -0.082274
     3  C    0.014480   0.048658
     4  C   -0.035917  -0.079007
     5  C   -0.031817   0.050800
     6  C    0.006247  -0.098875
     7  C   -0.049270   0.050016
     8  H    0.046767   0.003493
     9  H    0.049141   0.003394
    10  H    0.054191  -0.001802
    11  H    0.055447   0.004343
    12  H    0.052987  -0.001745
    13  C    0.001024  -0.212642
    14  C   -0.022278  -0.084586
    15  H    0.073184   0.009145
    16  H    0.095063   0.004550
    17  H    0.093616   0.003890
    18  O   -0.671946  -0.000564
    19  O   -0.669110  -0.000492
    20  O   -0.666487  -0.001915
    21  O   -0.671316  -0.000528
    22  W    1.716774   0.000352
    23  W    1.656404   0.000522
    24  W    1.669006   0.000196
    25  W    1.677284   0.000188
    26  W    1.660199   0.002803
    27  W    1.707370   0.002530
    28  W    1.612079   0.003357
    29  W    1.669015   0.002952
    30  O   -0.350456  -0.000533
    31  O   -0.394730  -0.000571
    32  O   -0.393972  -0.000604
    33  O   -0.392719  -0.000559
    34  O   -0.672286  -0.000298
    35  O   -0.677487  -0.000038
    36  O   -0.669605  -0.000134
    37  O   -0.671498  -0.000219
    38  O   -0.395555   0.002110
    39  O   -0.396359   0.002132
    40  O   -0.338877  -0.001128
    41  O   -0.395932   0.002126
    42  O   -0.677347   0.000070
    43  O   -0.670614   0.000178
    44  O   -0.666987   0.000302
    45  O   -0.673581   0.000100
    46  O   -0.395768   0.002310
    47  O   -0.352514   0.002198
    48  O   -0.387274   0.001765
    49  O   -0.395225   0.002372
    50  W    1.656721   0.002883
    51  W    1.660419   0.002771
    52  W    1.669955   0.003878
    53  W    1.668019   0.002722
    54  O   -0.720593   0.000113
    55  O   -0.703462   0.000013
    56  O   -0.721770   0.000185
    57  O   -0.718986   0.000070
    58  O   -0.701690  -0.000018
    59  O   -0.722584   0.000166
    60  O   -0.721234   0.000215
    61  O   -0.717589   0.000214
    62  O   -0.721164  -0.000176
    63  O   -0.704599  -0.000010
    64  O   -0.720572  -0.000193
    65  O   -0.723301  -0.000206
    66  O   -0.881772   0.005361
    67  O   -0.882351   0.007573
    68  O   -0.879946   0.007310
    69  O   -0.887894   0.006833
    70  K    0.850264   0.000204
    71  K    0.849783   0.000227
    72  K    0.845508   0.000254
    73  V    1.199682   0.934740
 Sum of Mulliken charges =  -1.00000  -0.00000

 Dipole moment (field-independent basis, Debye):
    X=             29.4209    Y=            -13.6608    Z=            -30.8243  Tot=             44.7476
 Quadrupole moment (field-independent basis, Debye-Ang):
   XX=           -782.3723   YY=           -700.0793   ZZ=           -784.6343
   XY=            131.7276   XZ=            188.9732   YZ=            -93.0482

 Normal termination of Gaussian 16 at Sat Jun  1 21:26:12 2024.
