 Gaussian 16, Revision C.01,
 Gaussian 16:  ES64L-G16RevC.01  3-Jul-2019

 ----------------------------------------------------------------------
 # def2svp wb97xd scrf=(smd,solvent=acetonitrile) g09default scf=(xqc,m
 axcycle=64) force guess=read nosymm
 ----------------------------------------------------------------------

 ----------
 Title Card
 ----------
 Symbolic Z-matrix:
 Charge = -1 Multiplicity = 1

                          Input orientation:
 ---------------------------------------------------------------------
 Center     Atomic      Atomic             Coordinates (Angstroms)
 Number     Number       Type             X           Y           Z
 ---------------------------------------------------------------------
      1         17           0       -9.982332    7.904126   10.469311
      2          6           0       -8.307584    4.238759   12.233947
      3          6           0       -9.066528    3.915561   11.093824
      4          6           0      -10.004650    2.872864   11.197532
      5          6           0      -10.187676    2.185099   12.393231
      6          6           0       -9.428995    2.520296   13.515316
      7          6           0       -8.487273    3.547890   13.428353
      8          1           0       -7.573401    5.046748   12.195024
      9          1           0      -10.601874    2.607668   10.320812
     10          1           0      -10.924579    1.380581   12.448967
     11          1           0       -9.560001    1.973955   14.451653
     12          1           0       -7.891678    3.817994   14.304286
     13          6           0       -8.935345    4.626509    9.820571
     14          6           0       -8.115121    5.662512    9.570881
     15          1           0       -9.584063    4.266527    9.014623
     16          1           0       -8.067016    6.112784    8.578090
     17          1           0       -7.391254    6.023635   10.305015
     18          8           0       -1.010630   -1.763042    7.459795
     19          8           0       -8.411118   -1.325034    7.465297
     20          8           0       -7.057619    1.343132   10.487717
     21          8           0       -2.332484   -4.350559   10.560771
     22         74           0       -3.424253    0.742688    6.495184
     23         74           0       -6.012051   -3.828044    6.584170
     24         74           0       -3.633059    0.917542   11.408750
     25         74           0       -5.779223   -3.869027   11.472306
     26         74           0       -2.470566   -2.546686    6.380282
     27         74           0       -6.946316   -0.535096    6.348978
     28         74           0       -6.827545   -0.251060   11.594102
     29         74           0       -2.572617   -2.694346   11.629582
     30          8           0       -3.198214    1.944856    5.332434
     31          8           0       -6.144544   -5.082262    5.446587
     32          8           0       -2.711763    1.771851   12.552544
     33          8           0       -6.692137   -4.685137   12.649665
     34          8           0       -2.697488   -0.867346    5.584763
     35          8           0       -6.717238   -2.270284    5.626740
     36          8           0       -5.323192    0.564867   12.370492
     37          8           0       -4.066918   -3.510295   12.413916
     38          8           0        0.295389   -0.002759    9.273101
     39          8           0       -9.718110   -3.015388    9.330245
     40          8           0       -6.391915    3.416837    8.631553
     41          8           0       -2.965065   -6.450250    8.748227
     42          8           0       -1.810149    0.784756    7.483916
     43          8           0       -7.612928   -3.878510    7.560814
     44          8           0       -4.534293    2.220082   10.425880
     45          8           0       -4.866222   -5.214845   10.523464
     46          8           0       -1.638733   -3.472744    5.223707
     47          8           0       -7.828058    0.266048    5.153712
     48          8           0       -8.038615   -0.171972   12.780204
     49          8           0       -1.339303   -2.807860   12.792666
     50         74           0       -1.266078   -0.516334    8.843485
     51         74           0       -8.159227   -2.509600    8.882396
     52         74           0       -5.930279    1.851636    9.044982
     53         74           0       -3.469559   -4.882385    9.166400
     54          8           0       -4.238006   -3.092444    6.071092
     55          8           0       -5.177420   -0.029417    6.012081
     56          8           0       -6.188269   -2.000585   11.923865
     57          8           0       -3.186894   -0.950262   11.932396
     58          8           0       -4.390768    1.594370    7.847522
     59          8           0       -5.006217   -4.675020    7.927240
     60          8           0       -2.341753    0.601688   10.081486
     61          8           0       -7.067719   -3.610727   10.140765
     62          8           0       -2.580759   -3.871440    7.859031
     63          8           0       -6.843843    0.787626    7.803223
     64          8           0       -7.845587   -1.174173   10.161394
     65          8           0       -1.574209   -1.834072   10.152810
     66          8           0       -3.385990   -1.129625    8.015801
     67          8           0       -6.033450   -1.950499    8.043835
     68          8           0       -5.137862   -0.198212    9.951417
     69          8           0       -4.251522   -2.822389    9.979519
     70         19           0       -3.233222   -6.120500    5.664902
     71         19           0       -0.149207    0.040219   12.350521
     72         19           0       -9.270158   -2.928584   12.411672
     73         23           0       -4.704433   -1.521303    8.995045
 ---------------------------------------------------------------------

 SCF Done:  E(RwB97XD) =  -7327.70016885     A.U. after   11 cycles

 Alpha  occ. eigenvalues -- -197.29056-130.00102-130.00071-129.99989-101.47598
 Alpha  occ. eigenvalues --  -22.62216 -19.33471 -19.33459 -19.33456 -19.33439
 Alpha  occ. eigenvalues --  -19.30704 -19.30676 -19.30673 -19.30663 -19.30661
 Alpha  occ. eigenvalues --  -19.30647 -19.30623 -19.30596 -19.30497 -19.30316
 Alpha  occ. eigenvalues --  -19.30308 -19.30037 -19.29321 -19.29317 -19.29287
 Alpha  occ. eigenvalues --  -19.29283 -19.29273 -19.29272 -19.29258 -19.29210
 Alpha  occ. eigenvalues --  -19.29178 -19.29149 -19.29147 -19.29135 -19.29110
 Alpha  occ. eigenvalues --  -19.29104 -19.29090 -19.29081 -19.29070 -19.29060
 Alpha  occ. eigenvalues --  -19.29035 -19.28997 -19.28964 -19.28945 -19.28926
 Alpha  occ. eigenvalues --  -19.28702 -19.11168 -19.11160 -19.11151 -13.37503
 Alpha  occ. eigenvalues --  -13.37472 -13.37380 -10.70433 -10.70426 -10.70425
 Alpha  occ. eigenvalues --  -10.70402 -10.70395 -10.70394 -10.70310 -10.70303
 Alpha  occ. eigenvalues --  -10.70301 -10.29770 -10.29304 -10.29244 -10.29038
 Alpha  occ. eigenvalues --  -10.28941 -10.28922 -10.28046 -10.27438  -9.38057
 Alpha  occ. eigenvalues --   -7.12879  -7.12839  -7.12836  -3.23281  -3.23266
 Alpha  occ. eigenvalues --   -3.23263  -3.23253  -3.23250  -3.23240  -3.23182
 Alpha  occ. eigenvalues --   -3.23182  -3.23134  -3.22904  -3.22896  -3.22627
 Alpha  occ. eigenvalues --   -2.91551  -1.93960  -1.93928  -1.93914  -1.87693
 Alpha  occ. eigenvalues --   -1.87630  -1.87612  -1.87545  -1.87464  -1.87448
 Alpha  occ. eigenvalues --   -1.87437  -1.87407  -1.87352  -1.87221  -1.87193
 Alpha  occ. eigenvalues --   -1.86973  -1.86591  -1.86472  -1.86465  -1.86439
 Alpha  occ. eigenvalues --   -1.86416  -1.86373  -1.86302  -1.86282  -1.86263
 Alpha  occ. eigenvalues --   -1.86248  -1.86220  -1.86186  -1.86114  -1.86086
 Alpha  occ. eigenvalues --   -1.86081  -1.86051  -1.86010  -1.85955  -1.85936
 Alpha  occ. eigenvalues --   -1.85875  -1.85837  -1.85746  -1.85607  -1.85527
 Alpha  occ. eigenvalues --   -1.51191  -1.51161  -1.51069  -1.12912  -1.11138
 Alpha  occ. eigenvalues --   -1.11038  -1.11035  -1.08888  -1.08484  -1.08430
 Alpha  occ. eigenvalues --   -1.08260  -1.07482  -1.07423  -1.07397  -1.06854
 Alpha  occ. eigenvalues --   -1.06832  -1.06786  -1.06256  -1.06211  -1.05299
 Alpha  occ. eigenvalues --   -1.05290  -1.04927  -1.04919  -1.04881  -1.04182
 Alpha  occ. eigenvalues --   -1.04177  -1.04146  -1.04006  -1.03993  -1.03979
 Alpha  occ. eigenvalues --   -1.03922  -1.03865  -1.03848  -1.03736  -1.03688
 Alpha  occ. eigenvalues --   -1.03601  -1.03526  -1.03266  -1.03242  -1.03098
 Alpha  occ. eigenvalues --   -1.03083  -1.03018  -1.02870  -0.94339  -0.86658
 Alpha  occ. eigenvalues --   -0.86630  -0.86544  -0.86478  -0.86470  -0.86464
 Alpha  occ. eigenvalues --   -0.86437  -0.86433  -0.86351  -0.86335  -0.82774
 Alpha  occ. eigenvalues --   -0.79735  -0.70765  -0.69732  -0.67973  -0.64532
 Alpha  occ. eigenvalues --   -0.63906  -0.63846  -0.63820  -0.63187  -0.63164
 Alpha  occ. eigenvalues --   -0.63053  -0.62987  -0.62579  -0.62508  -0.61837
 Alpha  occ. eigenvalues --   -0.61527  -0.61511  -0.61414  -0.61182  -0.61170
 Alpha  occ. eigenvalues --   -0.61120  -0.60354  -0.59405  -0.59376  -0.59374
 Alpha  occ. eigenvalues --   -0.59314  -0.59295  -0.58644  -0.57943  -0.57907
 Alpha  occ. eigenvalues --   -0.57841  -0.56972  -0.56940  -0.56897  -0.56233
 Alpha  occ. eigenvalues --   -0.56195  -0.56058  -0.55679  -0.54835  -0.54781
 Alpha  occ. eigenvalues --   -0.54736  -0.54533  -0.54194  -0.54078  -0.54033
 Alpha  occ. eigenvalues --   -0.53988  -0.53906  -0.53232  -0.53191  -0.53057
 Alpha  occ. eigenvalues --   -0.52987  -0.52866  -0.52689  -0.52660  -0.52617
 Alpha  occ. eigenvalues --   -0.52569  -0.52475  -0.52413  -0.52410  -0.51558
 Alpha  occ. eigenvalues --   -0.51533  -0.51338  -0.51304  -0.51284  -0.51224
 Alpha  occ. eigenvalues --   -0.51156  -0.51111  -0.50990  -0.50772  -0.50594
 Alpha  occ. eigenvalues --   -0.50573  -0.50554  -0.49892  -0.49873  -0.49260
 Alpha  occ. eigenvalues --   -0.49238  -0.49208  -0.49189  -0.49137  -0.49058
 Alpha  occ. eigenvalues --   -0.48864  -0.48043  -0.47998  -0.47877  -0.47615
 Alpha  occ. eigenvalues --   -0.47337  -0.47248  -0.47191  -0.46970  -0.46914
 Alpha  occ. eigenvalues --   -0.46830  -0.46586  -0.46553  -0.46413  -0.46146
 Alpha  occ. eigenvalues --   -0.46091  -0.46034  -0.45571  -0.45061  -0.44885
 Alpha  occ. eigenvalues --   -0.44848  -0.44138  -0.44106  -0.43962  -0.43509
 Alpha  occ. eigenvalues --   -0.43277  -0.43218  -0.43092  -0.43076  -0.43030
 Alpha  occ. eigenvalues --   -0.42711  -0.42693  -0.42649  -0.42569  -0.42556
 Alpha  occ. eigenvalues --   -0.42482  -0.42443  -0.42420  -0.42272  -0.42261
 Alpha  occ. eigenvalues --   -0.42224  -0.42007  -0.41883  -0.41822  -0.41809
 Alpha  occ. eigenvalues --   -0.41188  -0.41169  -0.41125  -0.41029  -0.40535
 Alpha  occ. eigenvalues --   -0.40515  -0.40497  -0.40353  -0.39406  -0.39375
 Alpha  occ. eigenvalues --   -0.36794  -0.32505  -0.28800  -0.24520  -0.24483
 Alpha  occ. eigenvalues --   -0.23047
 Alpha virt. eigenvalues --   -0.09149  -0.08948  -0.08326  -0.08279  -0.06895
 Alpha virt. eigenvalues --   -0.06846  -0.06758  -0.04186  -0.03946  -0.03903
 Alpha virt. eigenvalues --   -0.03628  -0.03446  -0.03367  -0.03160  -0.03028

 Mulliken charges:
               1
     1  Cl  -0.928063
     2  C   -0.080818
     3  C    0.040835
     4  C   -0.077452
     5  C   -0.033550
     6  C   -0.031918
     7  C   -0.050650
     8  H    0.027804
     9  H    0.029123
    10  H    0.040162
    11  H    0.036744
    12  H    0.039282
    13  C   -0.087162
    14  C    0.021860
    15  H    0.017518
    16  H    0.038047
    17  H    0.037121
    18  O   -0.663227
    19  O   -0.660204
    20  O   -0.655418
    21  O   -0.662294
    22  W    1.733117
    23  W    1.670112
    24  W    1.680662
    25  W    1.690605
    26  W    1.674037
    27  W    1.725205
    28  W    1.620548
    29  W    1.683145
    30  O   -0.321114
    31  O   -0.366352
    32  O   -0.366132
    33  O   -0.364192
    34  O   -0.663925
    35  O   -0.670257
    36  O   -0.660700
    37  O   -0.662579
    38  O   -0.365859
    39  O   -0.366061
    40  O   -0.292192
    41  O   -0.365828
    42  O   -0.669820
    43  O   -0.662104
    44  O   -0.658338
    45  O   -0.665371
    46  O   -0.365897
    47  O   -0.320653
    48  O   -0.354821
    49  O   -0.365071
    50  W    1.670919
    51  W    1.674317
    52  W    1.674056
    53  W    1.682550
    54  O   -0.722523
    55  O   -0.705177
    56  O   -0.725242
    57  O   -0.720819
    58  O   -0.704399
    59  O   -0.725190
    60  O   -0.723610
    61  O   -0.719721
    62  O   -0.722815
    63  O   -0.706441
    64  O   -0.721426
    65  O   -0.725292
    66  O   -0.799719
    67  O   -0.799448
    68  O   -0.797215
    69  O   -0.808608
    70  K    0.864240
    71  K    0.863620
    72  K    0.859875
    73  V    1.190163
 Sum of Mulliken charges =  -1.00000

 Dipole moment (field-independent basis, Debye):
    X=             51.9522    Y=            -50.4509    Z=            -38.5338  Tot=             82.0315
 Quadrupole moment (field-independent basis, Debye-Ang):
   XX=          -1074.8671   YY=           -867.1554   ZZ=           -911.1106
   XY=            451.7146   XZ=            465.4957   YZ=           -468.1871

 Normal termination of Gaussian 16 at Sat Jun  1 22:11:43 2024.
