 Gaussian 16, Revision C.01,
 Gaussian 16:  ES64L-G16RevC.01  3-Jul-2019

 ----------------------------------------------------------------------
 # def2svp wb97xd scrf=(smd,solvent=acetonitrile) g09default scf=(xqc,m
 axcycle=64) force guess=read nosymm
 ----------------------------------------------------------------------

 ----------
 Title Card
 ----------
 Symbolic Z-matrix:
 Charge = -1 Multiplicity = 1

                          Input orientation:
 ---------------------------------------------------------------------
 Center     Atomic      Atomic             Coordinates (Angstroms)
 Number     Number       Type             X           Y           Z
 ---------------------------------------------------------------------
      1         17           0       -9.982332    7.904126   10.469311
      2          6           0       -8.307584    4.238759   12.233947
      3          6           0       -9.066528    3.915561   11.093824
      4          6           0      -10.004650    2.872864   11.197532
      5          6           0      -10.187676    2.185099   12.393231
      6          6           0       -9.428995    2.520296   13.515316
      7          6           0       -8.487273    3.547890   13.428353
      8          1           0       -7.573401    5.046748   12.195024
      9          1           0      -10.601874    2.607668   10.320812
     10          1           0      -10.924579    1.380581   12.448967
     11          1           0       -9.560001    1.973955   14.451653
     12          1           0       -7.891678    3.817994   14.304286
     13          6           0       -8.935345    4.626509    9.820571
     14          6           0       -8.115121    5.662512    9.570881
     15          1           0       -9.584063    4.266527    9.014623
     16          1           0       -8.067016    6.112784    8.578090
     17          1           0       -7.391254    6.023635   10.305015
     18          8           0       -1.010630   -1.763042    7.459795
     19          8           0       -8.411118   -1.325034    7.465297
     20          8           0       -7.057619    1.343132   10.487717
     21          8           0       -2.332484   -4.350559   10.560771
     22         74           0       -3.424253    0.742688    6.495184
     23         74           0       -6.012051   -3.828044    6.584170
     24         74           0       -3.633059    0.917542   11.408750
     25         74           0       -5.779223   -3.869027   11.472306
     26         74           0       -2.470566   -2.546686    6.380282
     27         74           0       -6.946316   -0.535096    6.348978
     28         74           0       -6.827545   -0.251060   11.594102
     29         74           0       -2.572617   -2.694346   11.629582
     30          8           0       -3.198214    1.944856    5.332434
     31          8           0       -6.144544   -5.082262    5.446587
     32          8           0       -2.711763    1.771851   12.552544
     33          8           0       -6.692137   -4.685137   12.649665
     34          8           0       -2.697488   -0.867346    5.584763
     35          8           0       -6.717238   -2.270284    5.626740
     36          8           0       -5.323192    0.564867   12.370492
     37          8           0       -4.066918   -3.510295   12.413916
     38          8           0        0.295389   -0.002759    9.273101
     39          8           0       -9.718110   -3.015388    9.330245
     40          8           0       -6.391915    3.416837    8.631553
     41          8           0       -2.965065   -6.450250    8.748227
     42          8           0       -1.810149    0.784756    7.483916
     43          8           0       -7.612928   -3.878510    7.560814
     44          8           0       -4.534293    2.220082   10.425880
     45          8           0       -4.866222   -5.214845   10.523464
     46          8           0       -1.638733   -3.472744    5.223707
     47          8           0       -7.828058    0.266048    5.153712
     48          8           0       -8.038615   -0.171972   12.780204
     49          8           0       -1.339303   -2.807860   12.792666
     50         74           0       -1.266078   -0.516334    8.843485
     51         74           0       -8.159227   -2.509600    8.882396
     52         74           0       -5.930279    1.851636    9.044982
     53         74           0       -3.469559   -4.882385    9.166400
     54          8           0       -4.238006   -3.092444    6.071092
     55          8           0       -5.177420   -0.029417    6.012081
     56          8           0       -6.188269   -2.000585   11.923865
     57          8           0       -3.186894   -0.950262   11.932396
     58          8           0       -4.390768    1.594370    7.847522
     59          8           0       -5.006217   -4.675020    7.927240
     60          8           0       -2.341753    0.601688   10.081486
     61          8           0       -7.067719   -3.610727   10.140765
     62          8           0       -2.580759   -3.871440    7.859031
     63          8           0       -6.843843    0.787626    7.803223
     64          8           0       -7.845587   -1.174173   10.161394
     65          8           0       -1.574209   -1.834072   10.152810
     66          8           0       -3.385990   -1.129625    8.015801
     67          8           0       -6.033450   -1.950499    8.043835
     68          8           0       -5.137862   -0.198212    9.951417
     69          8           0       -4.251522   -2.822389    9.979519
     70         19           0       -3.233222   -6.120500    5.664902
     71         19           0       -0.149207    0.040219   12.350521
     72         19           0       -9.270158   -2.928584   12.411672
     73         23           0       -4.704433   -1.521303    8.995045
 ---------------------------------------------------------------------

 SCF Done:  E(UwB97XD) =  -7327.70007988     A.U. after   33 cycles

 Alpha  occ. eigenvalues --  -19.24534 -18.93747 -18.92659 -18.92621 -13.36497
 Alpha  occ. eigenvalues --  -13.36489 -13.36447 -10.69424 -10.69420 -10.69419
 Alpha  occ. eigenvalues --  -10.69416 -10.69412 -10.69412 -10.69375 -10.69371
 Alpha  occ. eigenvalues --  -10.69368 -10.32859 -10.32247 -10.31770 -10.30872
 Alpha  occ. eigenvalues --  -10.30843 -10.30817 -10.30462 -10.30379  -9.52396
 Alpha  occ. eigenvalues --   -7.27276  -7.26941  -7.26934  -3.21063  -3.21038
 Alpha  occ. eigenvalues --   -3.21032  -3.21027  -3.21006  -3.20989  -3.20978
 Alpha  occ. eigenvalues --   -3.20974  -3.20966  -3.20831  -3.20815  -3.20791
 Alpha  occ. eigenvalues --   -2.78554  -1.85307  -1.85275  -1.85253  -1.85223
 Alpha  occ. eigenvalues --   -1.85104  -1.85059  -1.85039  -1.85019  -1.85008
 Alpha  occ. eigenvalues --   -1.85003  -1.84977  -1.84923  -1.84360  -1.84248
 Alpha  occ. eigenvalues --   -1.84233  -1.84229  -1.84190  -1.84179  -1.84111
 Alpha  occ. eigenvalues --   -1.84097  -1.84071  -1.84064  -1.84040  -1.84028
 Alpha  occ. eigenvalues --   -1.83913  -1.83885  -1.83871  -1.83866  -1.83831
 Alpha  occ. eigenvalues --   -1.83794  -1.83775  -1.83772  -1.83753  -1.83654
 Alpha  occ. eigenvalues --   -1.83653  -1.83638  -1.81743  -1.81401  -1.81384
 Alpha  occ. eigenvalues --   -1.50201  -1.50192  -1.50150  -1.08566  -1.06937
 Alpha  occ. eigenvalues --   -1.06904  -1.06873  -1.05977  -1.05965  -1.05934
 Alpha  occ. eigenvalues --   -1.04544  -1.04535  -1.04524  -1.03936  -1.03913
 Alpha  occ. eigenvalues --   -1.03628  -1.03325  -1.03276  -1.03266  -1.03030
 Alpha  occ. eigenvalues --   -1.03007  -1.02216  -1.02198  -1.02167  -1.02066
 Alpha  occ. eigenvalues --   -1.02024  -1.01992  -1.01923  -1.01899  -1.01784
 Alpha  occ. eigenvalues --   -1.01739  -1.01725  -1.01610  -1.01566  -1.01552
 Alpha  occ. eigenvalues --   -1.01276  -1.00792  -1.00757  -1.00707  -1.00693
 Alpha  occ. eigenvalues --   -0.99930  -0.99862  -0.99794  -0.96067  -0.89215
 Alpha  occ. eigenvalues --   -0.85645  -0.85634  -0.85600  -0.85489  -0.85486
 Alpha  occ. eigenvalues --   -0.85483  -0.85477  -0.85446  -0.85428  -0.84154
 Alpha  occ. eigenvalues --   -0.82289  -0.80863  -0.71832  -0.69502  -0.64977
 Alpha  occ. eigenvalues --   -0.62273  -0.61664  -0.61617  -0.61578  -0.60540
 Alpha  occ. eigenvalues --   -0.58938  -0.58929  -0.58921  -0.58850  -0.58789
 Alpha  occ. eigenvalues --   -0.58716  -0.58707  -0.58660  -0.58502  -0.57304
 Alpha  occ. eigenvalues --   -0.57268  -0.57240  -0.56958  -0.56705  -0.56450
 Alpha  occ. eigenvalues --   -0.56411  -0.56370  -0.55965  -0.55815  -0.55319
 Alpha  occ. eigenvalues --   -0.55315  -0.55280  -0.54330  -0.54171  -0.54143
 Alpha  occ. eigenvalues --   -0.53965  -0.53631  -0.53589  -0.53564  -0.52706
 Alpha  occ. eigenvalues --   -0.52613  -0.52591  -0.52503  -0.52456  -0.51462
 Alpha  occ. eigenvalues --   -0.51453  -0.51431  -0.51361  -0.51304  -0.50677
 Alpha  occ. eigenvalues --   -0.50565  -0.50511  -0.50460  -0.50356  -0.50270
 Alpha  occ. eigenvalues --   -0.50228  -0.50056  -0.50025  -0.50000  -0.49754
 Alpha  occ. eigenvalues --   -0.49676  -0.49651  -0.49477  -0.49446  -0.49290
 Alpha  occ. eigenvalues --   -0.49237  -0.49186  -0.49098  -0.49054  -0.48966
 Alpha  occ. eigenvalues --   -0.48725  -0.48563  -0.48543  -0.48485  -0.47686
 Alpha  occ. eigenvalues --   -0.47672  -0.47110  -0.46465  -0.46028  -0.46013
 Alpha  occ. eigenvalues --   -0.45855  -0.45749  -0.45690  -0.45598  -0.45189
 Alpha  occ. eigenvalues --   -0.45117  -0.45111  -0.44824  -0.44620  -0.44480
 Alpha  occ. eigenvalues --   -0.44457  -0.44436  -0.44245  -0.44239  -0.44219
 Alpha  occ. eigenvalues --   -0.43362  -0.43011  -0.42534  -0.42491  -0.42426
 Alpha  occ. eigenvalues --   -0.42283  -0.42146  -0.42130  -0.42052  -0.41616
 Alpha  occ. eigenvalues --   -0.41589  -0.41544  -0.41018  -0.40981  -0.40787
 Alpha  occ. eigenvalues --   -0.40747  -0.40728  -0.40399  -0.40391  -0.40347
 Alpha  occ. eigenvalues --   -0.40206  -0.40169  -0.40159  -0.40135  -0.39860
 Alpha  occ. eigenvalues --   -0.39327  -0.39248  -0.39220  -0.39132  -0.38999
 Alpha  occ. eigenvalues --   -0.38912  -0.38883  -0.38809  -0.38695  -0.38662
 Alpha  occ. eigenvalues --   -0.38302  -0.38277  -0.38241  -0.37828  -0.37174
 Alpha  occ. eigenvalues --   -0.37169  -0.34602  -0.34580  -0.33543  -0.30001
 Alpha  occ. eigenvalues --   -0.25493
 Alpha virt. eigenvalues --   -0.11848  -0.06223  -0.06182  -0.04768  -0.04701
 Alpha virt. eigenvalues --   -0.04596  -0.01477  -0.01384  -0.01331  -0.01072
 Alpha virt. eigenvalues --   -0.00899  -0.00871  -0.00813  -0.00133  -0.00049

  Beta  occ. eigenvalues -- -197.10461-129.99089-129.99081-129.99051-101.62397
  Beta  occ. eigenvalues --  -22.42914 -19.28510 -19.28496 -19.28462 -19.28385
  Beta  occ. eigenvalues --  -19.28379 -19.28368 -19.28351 -19.28348 -19.28333
  Beta  occ. eigenvalues --  -19.28249 -19.28228 -19.28153 -19.26954 -19.26911
  Beta  occ. eigenvalues --  -19.26906 -19.26901 -19.26874 -19.26873 -19.26850
  Beta  occ. eigenvalues --  -19.26836 -19.26834 -19.26825 -19.26805 -19.26805
  Beta  occ. eigenvalues --  -19.26794 -19.26792 -19.26788 -19.26784 -19.26779
  Beta  occ. eigenvalues --  -19.26769 -19.26746 -19.26716 -19.26710 -19.26699
  Beta  occ. eigenvalues --  -19.26654 -19.26624 -19.24610 -19.24546 -19.24544
  Beta  occ. eigenvalues --  -19.24509 -18.93403 -18.91216 -18.91142 -13.36497
  Beta  occ. eigenvalues --  -13.36489 -13.36447 -10.69424 -10.69420 -10.69419
  Beta  occ. eigenvalues --  -10.69416 -10.69412 -10.69412 -10.69375 -10.69371
  Beta  occ. eigenvalues --  -10.69368 -10.33100 -10.32420 -10.31725 -10.30960
  Beta  occ. eigenvalues --  -10.30949 -10.30903 -10.30412 -10.30328  -9.52850
  Beta  occ. eigenvalues --   -7.28703  -7.27251  -7.27244  -3.21062  -3.21032
  Beta  occ. eigenvalues --   -3.21031  -3.21026  -3.21000  -3.20983  -3.20972
  Beta  occ. eigenvalues --   -3.20968  -3.20960  -3.20830  -3.20812  -3.20786
  Beta  occ. eigenvalues --   -2.74499  -1.85302  -1.85270  -1.85249  -1.85214
  Beta  occ. eigenvalues --   -1.85098  -1.85054  -1.85033  -1.85012  -1.85001
  Beta  occ. eigenvalues --   -1.84993  -1.84973  -1.84914  -1.84358  -1.84246
  Beta  occ. eigenvalues --   -1.84230  -1.84226  -1.84186  -1.84176  -1.84108
  Beta  occ. eigenvalues --   -1.84095  -1.84068  -1.84061  -1.84037  -1.84025
  Beta  occ. eigenvalues --   -1.83910  -1.83881  -1.83869  -1.83863  -1.83828
  Beta  occ. eigenvalues --   -1.83791  -1.83772  -1.83769  -1.83750  -1.83652
  Beta  occ. eigenvalues --   -1.83650  -1.83635  -1.80410  -1.75733  -1.75576
  Beta  occ. eigenvalues --   -1.50201  -1.50192  -1.50150  -1.08549  -1.06918
  Beta  occ. eigenvalues --   -1.06884  -1.06848  -1.05975  -1.05964  -1.05932
  Beta  occ. eigenvalues --   -1.04544  -1.04534  -1.04526  -1.03935  -1.03915
  Beta  occ. eigenvalues --   -1.03562  -1.03294  -1.03243  -1.03233  -1.03028
  Beta  occ. eigenvalues --   -1.02999  -1.02199  -1.02174  -1.02152  -1.02057
  Beta  occ. eigenvalues --   -1.02018  -1.01979  -1.01918  -1.01889  -1.01780
  Beta  occ. eigenvalues --   -1.01736  -1.01722  -1.01610  -1.01563  -1.01538
  Beta  occ. eigenvalues --   -1.01276  -1.00762  -1.00747  -1.00707  -1.00690
  Beta  occ. eigenvalues --   -0.99793  -0.99710  -0.99671  -0.96268  -0.89881
  Beta  occ. eigenvalues --   -0.85645  -0.85634  -0.85600  -0.85489  -0.85485
  Beta  occ. eigenvalues --   -0.85483  -0.85477  -0.85446  -0.85428  -0.84388
  Beta  occ. eigenvalues --   -0.84219  -0.82673  -0.72092  -0.69612  -0.65215
  Beta  occ. eigenvalues --   -0.62272  -0.61663  -0.61617  -0.61577  -0.60725
  Beta  occ. eigenvalues --   -0.58937  -0.58926  -0.58920  -0.58774  -0.58722
  Beta  occ. eigenvalues --   -0.58698  -0.58688  -0.58634  -0.58502  -0.57277
  Beta  occ. eigenvalues --   -0.57118  -0.57072  -0.56953  -0.56843  -0.56451
  Beta  occ. eigenvalues --   -0.56381  -0.56335  -0.55771  -0.55561  -0.55299
  Beta  occ. eigenvalues --   -0.55297  -0.55280  -0.54497  -0.54166  -0.54134
  Beta  occ. eigenvalues --   -0.53954  -0.53606  -0.53565  -0.53522  -0.52754
  Beta  occ. eigenvalues --   -0.52637  -0.52578  -0.52487  -0.52448  -0.51452
  Beta  occ. eigenvalues --   -0.51428  -0.51409  -0.51302  -0.51247  -0.50847
  Beta  occ. eigenvalues --   -0.50476  -0.50447  -0.50399  -0.50310  -0.50233
  Beta  occ. eigenvalues --   -0.50178  -0.50026  -0.50021  -0.49971  -0.49702
  Beta  occ. eigenvalues --   -0.49651  -0.49630  -0.49469  -0.49436  -0.49292
  Beta  occ. eigenvalues --   -0.49213  -0.49188  -0.49067  -0.49038  -0.48943
  Beta  occ. eigenvalues --   -0.48718  -0.48566  -0.48547  -0.48478  -0.47770
  Beta  occ. eigenvalues --   -0.47649  -0.47544  -0.45906  -0.45884  -0.45804
  Beta  occ. eigenvalues --   -0.45783  -0.45669  -0.45556  -0.45189  -0.45145
  Beta  occ. eigenvalues --   -0.45114  -0.45030  -0.44825  -0.44621  -0.44462
  Beta  occ. eigenvalues --   -0.44438  -0.44393  -0.44244  -0.44201  -0.44188
  Beta  occ. eigenvalues --   -0.43355  -0.43102  -0.42488  -0.42458  -0.42388
  Beta  occ. eigenvalues --   -0.42235  -0.42119  -0.42102  -0.42092  -0.41592
  Beta  occ. eigenvalues --   -0.41586  -0.41531  -0.41329  -0.41021  -0.40933
  Beta  occ. eigenvalues --   -0.40736  -0.40703  -0.40646  -0.40381  -0.40378
  Beta  occ. eigenvalues --   -0.40318  -0.40161  -0.40149  -0.40119  -0.39802
  Beta  occ. eigenvalues --   -0.39613  -0.39327  -0.39155  -0.39088  -0.39070
  Beta  occ. eigenvalues --   -0.38878  -0.38854  -0.38800  -0.38691  -0.38647
  Beta  occ. eigenvalues --   -0.38605  -0.38299  -0.38269  -0.38236  -0.37485
  Beta  occ. eigenvalues --   -0.37175  -0.37164  -0.35546  -0.35526  -0.33784
  Beta  occ. eigenvalues --   -0.30714
  Beta virt. eigenvalues --   -0.06221  -0.06183  -0.04767  -0.04700  -0.04595
  Beta virt. eigenvalues --   -0.01473  -0.01379  -0.01327  -0.01067  -0.00894
  Beta virt. eigenvalues --   -0.00867  -0.00810  -0.00132  -0.00038  -0.00012

 Mulliken charges and spin densities:
               1          2
     1  Cl  -0.355934  -0.613883
     2  C   -0.038149  -0.082178
     3  C    0.014739   0.048274
     4  C   -0.035761  -0.079137
     5  C   -0.031550   0.050843
     6  C    0.006477  -0.099009
     7  C   -0.049186   0.050015
     8  H    0.046965   0.003491
     9  H    0.049076   0.003396
    10  H    0.053966  -0.001801
    11  H    0.055344   0.004350
    12  H    0.052971  -0.001744
    13  C    0.000673  -0.211593
    14  C   -0.022593  -0.084758
    15  H    0.073159   0.009100
    16  H    0.094950   0.004589
    17  H    0.093476   0.003908
    18  O   -0.671871  -0.000565
    19  O   -0.668987  -0.000493
    20  O   -0.666372  -0.001915
    21  O   -0.671202  -0.000527
    22  W    1.716511   0.000353
    23  W    1.655730   0.000520
    24  W    1.668359   0.000193
    25  W    1.676596   0.000187
    26  W    1.660067   0.002805
    27  W    1.707348   0.002528
    28  W    1.612243   0.003360
    29  W    1.668741   0.002952
    30  O   -0.350652  -0.000531
    31  O   -0.394601  -0.000567
    32  O   -0.394264  -0.000602
    33  O   -0.392672  -0.000556
    34  O   -0.672230  -0.000301
    35  O   -0.677475  -0.000046
    36  O   -0.669499  -0.000140
    37  O   -0.671432  -0.000224
    38  O   -0.395585   0.002110
    39  O   -0.396003   0.002127
    40  O   -0.339549  -0.001106
    41  O   -0.395787   0.002120
    42  O   -0.677265   0.000071
    43  O   -0.670609   0.000178
    44  O   -0.666860   0.000300
    45  O   -0.673626   0.000098
    46  O   -0.395749   0.002316
    47  O   -0.351992   0.002197
    48  O   -0.387473   0.001775
    49  O   -0.395002   0.002374
    50  W    1.656622   0.002879
    51  W    1.660053   0.002763
    52  W    1.670184   0.003882
    53  W    1.667871   0.002714
    54  O   -0.720419   0.000109
    55  O   -0.703508   0.000010
    56  O   -0.721756   0.000180
    57  O   -0.718885   0.000066
    58  O   -0.701775  -0.000018
    59  O   -0.722426   0.000163
    60  O   -0.721070   0.000212
    61  O   -0.717366   0.000210
    62  O   -0.721186  -0.000176
    63  O   -0.704619  -0.000010
    64  O   -0.720564  -0.000193
    65  O   -0.723224  -0.000206
    66  O   -0.881753   0.005334
    67  O   -0.882190   0.007521
    68  O   -0.880085   0.007235
    69  O   -0.887685   0.006772
    70  K    0.850628   0.000202
    71  K    0.850164   0.000225
    72  K    0.845980   0.000251
    73  V    1.199554   0.935016
 Sum of Mulliken charges =  -1.00000   0.00000

 Dipole moment (field-independent basis, Debye):
    X=             29.4163    Y=            -13.7239    Z=            -30.8164  Tot=             44.7584
 Quadrupole moment (field-independent basis, Debye-Ang):
   XX=           -782.1267   YY=           -700.4349   ZZ=           -784.3397
   XY=            132.2573   XZ=            188.8698   YZ=            -93.6090

 Normal termination of Gaussian 16 at Sat Jun  1 22:01:18 2024.
