 Gaussian 16, Revision C.01,
 Gaussian 16:  ES64L-G16RevC.01  3-Jul-2019

 ----------------------------------------------------------------------
 # def2svp wb97xd scrf=(smd,solvent=acetonitrile) g09default scf=(xqc,m
 axcycle=64) force guess=read nosymm
 ----------------------------------------------------------------------

 ----------
 Title Card
 ----------
 Symbolic Z-matrix:
 Charge = -1 Multiplicity = 1

                          Input orientation:
 ---------------------------------------------------------------------
 Center     Atomic      Atomic             Coordinates (Angstroms)
 Number     Number       Type             X           Y           Z
 ---------------------------------------------------------------------
      1         17           0       -9.982923    7.915299   10.472426
      2          6           0       -8.307912    4.238722   12.233468
      3          6           0       -9.067998    3.915526   11.094377
      4          6           0      -10.004982    2.872181   11.197810
      5          6           0      -10.187266    2.184630   12.393239
      6          6           0       -9.428729    2.520043   13.514872
      7          6           0       -8.487017    3.547470   13.428128
      8          1           0       -7.572931    5.045710   12.193977
      9          1           0      -10.601905    2.605919   10.320619
     10          1           0      -10.925057    1.380428   12.450058
     11          1           0       -9.560766    1.975062   14.452081
     12          1           0       -7.891979    3.818191   14.303981
     13          6           0       -8.937228    4.627391    9.821103
     14          6           0       -8.117773    5.663533    9.571498
     15          1           0       -9.583760    4.264713    9.014775
     16          1           0       -8.069051    6.112658    8.577923
     17          1           0       -7.394019    6.026305   10.304834
     18          8           0       -1.010353   -1.762501    7.459121
     19          8           0       -8.411361   -1.325711    7.464676
     20          8           0       -7.056515    1.343640   10.487994
     21          8           0       -2.332650   -4.351349   10.561122
     22         74           0       -3.423579    0.742204    6.494318
     23         74           0       -6.012104   -3.828784    6.583568
     24         74           0       -3.632368    0.917874   11.409532
     25         74           0       -5.779564   -3.869153   11.472626
     26         74           0       -2.470530   -2.547044    6.380433
     27         74           0       -6.945629   -0.535651    6.349258
     28         74           0       -6.827270   -0.250815   11.593667
     29         74           0       -2.572786   -2.694559   11.629502
     30          8           0       -3.196845    1.943633    5.330700
     31          8           0       -6.145504   -5.081805    5.444744
     32          8           0       -2.712710    1.771966   12.554451
     33          8           0       -6.690924   -4.685802   12.651059
     34          8           0       -2.696823   -0.867661    5.584786
     35          8           0       -6.717454   -2.270560    5.627006
     36          8           0       -5.323041    0.565273   12.369938
     37          8           0       -4.066606   -3.510918   12.413407
     38          8           0        0.295740   -0.001935    9.272263
     39          8           0       -9.718646   -3.016333    9.329125
     40          8           0       -6.390570    3.417118    8.632985
     41          8           0       -2.965638   -6.451082    8.749285
     42          8           0       -1.809561    0.783803    7.483073
     43          8           0       -7.613029   -3.878051    7.560166
     44          8           0       -4.534086    2.219883   10.426452
     45          8           0       -4.865631   -5.214423   10.523907
     46          8           0       -1.637124   -3.472900    5.224349
     47          8           0       -7.829530    0.265510    5.154602
     48          8           0       -8.039001   -0.170102   12.778982
     49          8           0       -1.338745   -2.810115   12.792100
     50         74           0       -1.266049   -0.516594    8.843098
     51         74           0       -8.158953   -2.509488    8.881675
     52         74           0       -5.929311    1.851585    9.044993
     53         74           0       -3.469451   -4.882629    9.166896
     54          8           0       -4.238108   -3.092097    6.070917
     55          8           0       -5.176812   -0.029938    6.011397
     56          8           0       -6.187663   -2.000458   11.923721
     57          8           0       -3.187040   -0.950475   11.932881
     58          8           0       -4.389588    1.593017    7.847943
     59          8           0       -5.006626   -4.675044    7.927029
     60          8           0       -2.341895    0.601719   10.081530
     61          8           0       -7.067436   -3.611111   10.140607
     62          8           0       -2.580807   -3.871468    7.859269
     63          8           0       -6.843050    0.787101    7.803457
     64          8           0       -7.845154   -1.174177   10.160822
     65          8           0       -1.574551   -1.834315   10.152385
     66          8           0       -3.385463   -1.129899    8.015360
     67          8           0       -6.033620   -1.950300    8.043100
     68          8           0       -5.137819   -0.197888    9.951447
     69          8           0       -4.251235   -2.822789    9.979578
     70         19           0       -3.232750   -6.121998    5.663827
     71         19           0       -0.147605    0.041091   12.351579
     72         19           0       -9.271686   -2.928204   12.413241
     73         23           0       -4.704373   -1.521482    8.994758
 ---------------------------------------------------------------------

 SCF Done:  E(RwB97XD) =  -7327.70026689     A.U. after   12 cycles

 Alpha  occ. eigenvalues -- -197.29086-130.00113-130.00082-130.00000-101.47593
 Alpha  occ. eigenvalues --  -22.62241 -19.33476 -19.33467 -19.33464 -19.33437
 Alpha  occ. eigenvalues --  -19.30707 -19.30672 -19.30669 -19.30661 -19.30651
 Alpha  occ. eigenvalues --  -19.30643 -19.30627 -19.30579 -19.30496 -19.30315
 Alpha  occ. eigenvalues --  -19.30296 -19.30040 -19.29325 -19.29317 -19.29288
 Alpha  occ. eigenvalues --  -19.29285 -19.29275 -19.29270 -19.29261 -19.29210
 Alpha  occ. eigenvalues --  -19.29181 -19.29153 -19.29150 -19.29134 -19.29113
 Alpha  occ. eigenvalues --  -19.29105 -19.29091 -19.29083 -19.29073 -19.29066
 Alpha  occ. eigenvalues --  -19.29033 -19.28995 -19.28965 -19.28947 -19.28929
 Alpha  occ. eigenvalues --  -19.28705 -19.11194 -19.11186 -19.11177 -13.37515
 Alpha  occ. eigenvalues --  -13.37483 -13.37391 -10.70444 -10.70437 -10.70437
 Alpha  occ. eigenvalues --  -10.70413 -10.70406 -10.70405 -10.70321 -10.70314
 Alpha  occ. eigenvalues --  -10.70312 -10.29773 -10.29306 -10.29243 -10.29039
 Alpha  occ. eigenvalues --  -10.28946 -10.28929 -10.28051 -10.27460  -9.38052
 Alpha  occ. eigenvalues --   -7.12874  -7.12834  -7.12832  -3.23282  -3.23265
 Alpha  occ. eigenvalues --   -3.23263  -3.23254  -3.23251  -3.23240  -3.23182
 Alpha  occ. eigenvalues --   -3.23179  -3.23133  -3.22906  -3.22898  -3.22630
 Alpha  occ. eigenvalues --   -2.91565  -1.93970  -1.93939  -1.93925  -1.87690
 Alpha  occ. eigenvalues --   -1.87625  -1.87609  -1.87546  -1.87460  -1.87444
 Alpha  occ. eigenvalues --   -1.87432  -1.87398  -1.87352  -1.87217  -1.87187
 Alpha  occ. eigenvalues --   -1.86977  -1.86591  -1.86473  -1.86465  -1.86440
 Alpha  occ. eigenvalues --   -1.86417  -1.86372  -1.86303  -1.86284  -1.86265
 Alpha  occ. eigenvalues --   -1.86249  -1.86219  -1.86186  -1.86114  -1.86087
 Alpha  occ. eigenvalues --   -1.86081  -1.86051  -1.86011  -1.85955  -1.85937
 Alpha  occ. eigenvalues --   -1.85876  -1.85839  -1.85748  -1.85608  -1.85530
 Alpha  occ. eigenvalues --   -1.51202  -1.51172  -1.51079  -1.12914  -1.11141
 Alpha  occ. eigenvalues --   -1.11044  -1.11037  -1.08887  -1.08484  -1.08429
 Alpha  occ. eigenvalues --   -1.08260  -1.07483  -1.07426  -1.07396  -1.06854
 Alpha  occ. eigenvalues --   -1.06832  -1.06788  -1.06257  -1.06213  -1.05299
 Alpha  occ. eigenvalues --   -1.05289  -1.04929  -1.04921  -1.04885  -1.04180
 Alpha  occ. eigenvalues --   -1.04176  -1.04143  -1.04004  -1.03989  -1.03972
 Alpha  occ. eigenvalues --   -1.03918  -1.03861  -1.03843  -1.03730  -1.03681
 Alpha  occ. eigenvalues --   -1.03596  -1.03527  -1.03262  -1.03227  -1.03099
 Alpha  occ. eigenvalues --   -1.03084  -1.03018  -1.02874  -0.94353  -0.86668
 Alpha  occ. eigenvalues --   -0.86640  -0.86554  -0.86490  -0.86480  -0.86474
 Alpha  occ. eigenvalues --   -0.86448  -0.86443  -0.86361  -0.86345  -0.82782
 Alpha  occ. eigenvalues --   -0.79750  -0.70759  -0.69738  -0.67981  -0.64533
 Alpha  occ. eigenvalues --   -0.63905  -0.63845  -0.63821  -0.63187  -0.63163
 Alpha  occ. eigenvalues --   -0.63053  -0.62995  -0.62578  -0.62506  -0.61840
 Alpha  occ. eigenvalues --   -0.61528  -0.61511  -0.61416  -0.61182  -0.61171
 Alpha  occ. eigenvalues --   -0.61121  -0.60355  -0.59401  -0.59373  -0.59373
 Alpha  occ. eigenvalues --   -0.59314  -0.59293  -0.58651  -0.57943  -0.57908
 Alpha  occ. eigenvalues --   -0.57843  -0.56973  -0.56940  -0.56899  -0.56230
 Alpha  occ. eigenvalues --   -0.56191  -0.56053  -0.55673  -0.54827  -0.54777
 Alpha  occ. eigenvalues --   -0.54728  -0.54540  -0.54192  -0.54079  -0.54031
 Alpha  occ. eigenvalues --   -0.53988  -0.53898  -0.53236  -0.53188  -0.53057
 Alpha  occ. eigenvalues --   -0.52982  -0.52865  -0.52692  -0.52658  -0.52615
 Alpha  occ. eigenvalues --   -0.52566  -0.52478  -0.52417  -0.52410  -0.51550
 Alpha  occ. eigenvalues --   -0.51526  -0.51335  -0.51298  -0.51277  -0.51216
 Alpha  occ. eigenvalues --   -0.51149  -0.51105  -0.50993  -0.50765  -0.50582
 Alpha  occ. eigenvalues --   -0.50571  -0.50550  -0.49890  -0.49873  -0.49259
 Alpha  occ. eigenvalues --   -0.49235  -0.49213  -0.49188  -0.49132  -0.49048
 Alpha  occ. eigenvalues --   -0.48856  -0.48043  -0.47991  -0.47873  -0.47628
 Alpha  occ. eigenvalues --   -0.47334  -0.47250  -0.47193  -0.46971  -0.46916
 Alpha  occ. eigenvalues --   -0.46829  -0.46581  -0.46548  -0.46413  -0.46148
 Alpha  occ. eigenvalues --   -0.46089  -0.46032  -0.45578  -0.45058  -0.44883
 Alpha  occ. eigenvalues --   -0.44844  -0.44137  -0.44107  -0.43962  -0.43516
 Alpha  occ. eigenvalues --   -0.43276  -0.43216  -0.43092  -0.43073  -0.43030
 Alpha  occ. eigenvalues --   -0.42709  -0.42691  -0.42646  -0.42565  -0.42556
 Alpha  occ. eigenvalues --   -0.42482  -0.42437  -0.42419  -0.42269  -0.42260
 Alpha  occ. eigenvalues --   -0.42223  -0.42005  -0.41880  -0.41820  -0.41809
 Alpha  occ. eigenvalues --   -0.41192  -0.41169  -0.41126  -0.41032  -0.40535
 Alpha  occ. eigenvalues --   -0.40517  -0.40497  -0.40359  -0.39408  -0.39378
 Alpha  occ. eigenvalues --   -0.36804  -0.32510  -0.28805  -0.24515  -0.24479
 Alpha  occ. eigenvalues --   -0.23070
 Alpha virt. eigenvalues --   -0.09171  -0.08967  -0.08327  -0.08278  -0.06899
 Alpha virt. eigenvalues --   -0.06844  -0.06756  -0.04207  -0.03956  -0.03915
 Alpha virt. eigenvalues --   -0.03633  -0.03455  -0.03375  -0.03162  -0.03030

 Mulliken charges:
               1
     1  Cl  -0.928828
     2  C   -0.080583
     3  C    0.040597
     4  C   -0.077330
     5  C   -0.033594
     6  C   -0.031701
     7  C   -0.050663
     8  H    0.027855
     9  H    0.029430
    10  H    0.040330
    11  H    0.036794
    12  H    0.039217
    13  C   -0.087014
    14  C    0.020758
    15  H    0.017805
    16  H    0.038356
    17  H    0.037226
    18  O   -0.663096
    19  O   -0.659893
    20  O   -0.655363
    21  O   -0.662081
    22  W    1.733122
    23  W    1.669814
    24  W    1.680214
    25  W    1.690281
    26  W    1.674064
    27  W    1.725334
    28  W    1.620634
    29  W    1.683047
    30  O   -0.321209
    31  O   -0.366206
    32  O   -0.365873
    33  O   -0.364160
    34  O   -0.663836
    35  O   -0.670125
    36  O   -0.660669
    37  O   -0.662444
    38  O   -0.366186
    39  O   -0.366671
    40  O   -0.292213
    41  O   -0.365878
    42  O   -0.669732
    43  O   -0.662038
    44  O   -0.658319
    45  O   -0.665339
    46  O   -0.366044
    47  O   -0.321187
    48  O   -0.354736
    49  O   -0.365185
    50  W    1.670948
    51  W    1.674281
    52  W    1.674508
    53  W    1.682560
    54  O   -0.722447
    55  O   -0.705163
    56  O   -0.725287
    57  O   -0.720769
    58  O   -0.704575
    59  O   -0.725110
    60  O   -0.723603
    61  O   -0.719609
    62  O   -0.722894
    63  O   -0.706574
    64  O   -0.721444
    65  O   -0.725293
    66  O   -0.799815
    67  O   -0.799658
    68  O   -0.797097
    69  O   -0.808551
    70  K    0.864561
    71  K    0.863969
    72  K    0.860246
    73  V    1.190134
 Sum of Mulliken charges =  -1.00000

 Dipole moment (field-independent basis, Debye):
    X=             51.9737    Y=            -50.5316    Z=            -38.5202  Tot=             82.0884
 Quadrupole moment (field-independent basis, Debye-Ang):
   XX=          -1075.1587   YY=           -868.0964   ZZ=           -910.7568
   XY=            452.5415   XZ=            465.6065   YZ=           -469.0137

 Normal termination of Gaussian 16 at Sat Jun  1 22:51:01 2024.
