 Gaussian 16, Revision C.01,
 Gaussian 16:  ES64L-G16RevC.01  3-Jul-2019

 ----------------------------------------------------------------------
 # def2svp wb97xd scrf=(smd,solvent=acetonitrile) g09default scf=(xqc,m
 axcycle=64) force guess=read nosymm
 ----------------------------------------------------------------------

 ----------
 Title Card
 ----------
 Symbolic Z-matrix:
 Charge = -1 Multiplicity = 1

                          Input orientation:
 ---------------------------------------------------------------------
 Center     Atomic      Atomic             Coordinates (Angstroms)
 Number     Number       Type             X           Y           Z
 ---------------------------------------------------------------------
      1         17           0       -9.982923    7.915299   10.472426
      2          6           0       -8.307912    4.238722   12.233468
      3          6           0       -9.067998    3.915526   11.094377
      4          6           0      -10.004982    2.872181   11.197810
      5          6           0      -10.187266    2.184630   12.393239
      6          6           0       -9.428729    2.520043   13.514872
      7          6           0       -8.487017    3.547470   13.428128
      8          1           0       -7.572931    5.045710   12.193977
      9          1           0      -10.601905    2.605919   10.320619
     10          1           0      -10.925057    1.380428   12.450058
     11          1           0       -9.560766    1.975062   14.452081
     12          1           0       -7.891979    3.818191   14.303981
     13          6           0       -8.937228    4.627391    9.821103
     14          6           0       -8.117773    5.663533    9.571498
     15          1           0       -9.583760    4.264713    9.014775
     16          1           0       -8.069051    6.112658    8.577923
     17          1           0       -7.394019    6.026305   10.304834
     18          8           0       -1.010353   -1.762501    7.459121
     19          8           0       -8.411361   -1.325711    7.464676
     20          8           0       -7.056515    1.343640   10.487994
     21          8           0       -2.332650   -4.351349   10.561122
     22         74           0       -3.423579    0.742204    6.494318
     23         74           0       -6.012104   -3.828784    6.583568
     24         74           0       -3.632368    0.917874   11.409532
     25         74           0       -5.779564   -3.869153   11.472626
     26         74           0       -2.470530   -2.547044    6.380433
     27         74           0       -6.945629   -0.535651    6.349258
     28         74           0       -6.827270   -0.250815   11.593667
     29         74           0       -2.572786   -2.694559   11.629502
     30          8           0       -3.196845    1.943633    5.330700
     31          8           0       -6.145504   -5.081805    5.444744
     32          8           0       -2.712710    1.771966   12.554451
     33          8           0       -6.690924   -4.685802   12.651059
     34          8           0       -2.696823   -0.867661    5.584786
     35          8           0       -6.717454   -2.270560    5.627006
     36          8           0       -5.323041    0.565273   12.369938
     37          8           0       -4.066606   -3.510918   12.413407
     38          8           0        0.295740   -0.001935    9.272263
     39          8           0       -9.718646   -3.016333    9.329125
     40          8           0       -6.390570    3.417118    8.632985
     41          8           0       -2.965638   -6.451082    8.749285
     42          8           0       -1.809561    0.783803    7.483073
     43          8           0       -7.613029   -3.878051    7.560166
     44          8           0       -4.534086    2.219883   10.426452
     45          8           0       -4.865631   -5.214423   10.523907
     46          8           0       -1.637124   -3.472900    5.224349
     47          8           0       -7.829530    0.265510    5.154602
     48          8           0       -8.039001   -0.170102   12.778982
     49          8           0       -1.338745   -2.810115   12.792100
     50         74           0       -1.266049   -0.516594    8.843098
     51         74           0       -8.158953   -2.509488    8.881675
     52         74           0       -5.929311    1.851585    9.044993
     53         74           0       -3.469451   -4.882629    9.166896
     54          8           0       -4.238108   -3.092097    6.070917
     55          8           0       -5.176812   -0.029938    6.011397
     56          8           0       -6.187663   -2.000458   11.923721
     57          8           0       -3.187040   -0.950475   11.932881
     58          8           0       -4.389588    1.593017    7.847943
     59          8           0       -5.006626   -4.675044    7.927029
     60          8           0       -2.341895    0.601719   10.081530
     61          8           0       -7.067436   -3.611111   10.140607
     62          8           0       -2.580807   -3.871468    7.859269
     63          8           0       -6.843050    0.787101    7.803457
     64          8           0       -7.845154   -1.174177   10.160822
     65          8           0       -1.574551   -1.834315   10.152385
     66          8           0       -3.385463   -1.129899    8.015360
     67          8           0       -6.033620   -1.950300    8.043100
     68          8           0       -5.137819   -0.197888    9.951447
     69          8           0       -4.251235   -2.822789    9.979578
     70         19           0       -3.232750   -6.121998    5.663827
     71         19           0       -0.147605    0.041091   12.351579
     72         19           0       -9.271686   -2.928204   12.413241
     73         23           0       -4.704373   -1.521482    8.994758
 ---------------------------------------------------------------------

 SCF Done:  E(UwB97XD) =  -7327.70003347     A.U. after   39 cycles

 Alpha  occ. eigenvalues --  -19.24548 -18.93781 -18.92692 -18.92657 -13.36510
 Alpha  occ. eigenvalues --  -13.36502 -13.36459 -10.69436 -10.69432 -10.69432
 Alpha  occ. eigenvalues --  -10.69429 -10.69425 -10.69424 -10.69387 -10.69383
 Alpha  occ. eigenvalues --  -10.69380 -10.32840 -10.32220 -10.31760 -10.30864
 Alpha  occ. eigenvalues --  -10.30831 -10.30808 -10.30455 -10.30370  -9.52458
 Alpha  occ. eigenvalues --   -7.27338  -7.27001  -7.26994  -3.21059  -3.21036
 Alpha  occ. eigenvalues --   -3.21034  -3.21026  -3.21005  -3.20988  -3.20979
 Alpha  occ. eigenvalues --   -3.20976  -3.20965  -3.20831  -3.20813  -3.20791
 Alpha  occ. eigenvalues --   -2.78575  -1.85306  -1.85272  -1.85251  -1.85218
 Alpha  occ. eigenvalues --   -1.85102  -1.85055  -1.85031  -1.85015  -1.85005
 Alpha  occ. eigenvalues --   -1.84999  -1.84975  -1.84912  -1.84360  -1.84247
 Alpha  occ. eigenvalues --   -1.84232  -1.84229  -1.84189  -1.84179  -1.84111
 Alpha  occ. eigenvalues --   -1.84096  -1.84072  -1.84064  -1.84040  -1.84028
 Alpha  occ. eigenvalues --   -1.83911  -1.83885  -1.83871  -1.83866  -1.83830
 Alpha  occ. eigenvalues --   -1.83794  -1.83775  -1.83772  -1.83753  -1.83653
 Alpha  occ. eigenvalues --   -1.83652  -1.83638  -1.81760  -1.81417  -1.81402
 Alpha  occ. eigenvalues --   -1.50212  -1.50204  -1.50161  -1.08567  -1.06937
 Alpha  occ. eigenvalues --   -1.06906  -1.06876  -1.05975  -1.05964  -1.05934
 Alpha  occ. eigenvalues --   -1.04544  -1.04534  -1.04525  -1.03935  -1.03914
 Alpha  occ. eigenvalues --   -1.03625  -1.03322  -1.03273  -1.03264  -1.03028
 Alpha  occ. eigenvalues --   -1.03005  -1.02218  -1.02198  -1.02167  -1.02062
 Alpha  occ. eigenvalues --   -1.02018  -1.01985  -1.01919  -1.01891  -1.01781
 Alpha  occ. eigenvalues --   -1.01737  -1.01723  -1.01609  -1.01562  -1.01541
 Alpha  occ. eigenvalues --   -1.01278  -1.00788  -1.00757  -1.00707  -1.00694
 Alpha  occ. eigenvalues --   -0.99930  -0.99860  -0.99796  -0.96068  -0.89208
 Alpha  occ. eigenvalues --   -0.85655  -0.85645  -0.85611  -0.85501  -0.85497
 Alpha  occ. eigenvalues --   -0.85494  -0.85488  -0.85456  -0.85438  -0.84152
 Alpha  occ. eigenvalues --   -0.82287  -0.80902  -0.71822  -0.69499  -0.64970
 Alpha  occ. eigenvalues --   -0.62273  -0.61662  -0.61616  -0.61577  -0.60534
 Alpha  occ. eigenvalues --   -0.58937  -0.58929  -0.58921  -0.58850  -0.58786
 Alpha  occ. eigenvalues --   -0.58717  -0.58709  -0.58660  -0.58501  -0.57303
 Alpha  occ. eigenvalues --   -0.57270  -0.57240  -0.56957  -0.56697  -0.56445
 Alpha  occ. eigenvalues --   -0.56407  -0.56367  -0.55962  -0.55812  -0.55319
 Alpha  occ. eigenvalues --   -0.55315  -0.55280  -0.54320  -0.54166  -0.54136
 Alpha  occ. eigenvalues --   -0.53959  -0.53631  -0.53589  -0.53563  -0.52698
 Alpha  occ. eigenvalues --   -0.52605  -0.52583  -0.52497  -0.52449  -0.51463
 Alpha  occ. eigenvalues --   -0.51453  -0.51430  -0.51359  -0.51305  -0.50678
 Alpha  occ. eigenvalues --   -0.50560  -0.50508  -0.50454  -0.50352  -0.50264
 Alpha  occ. eigenvalues --   -0.50223  -0.50056  -0.50022  -0.49999  -0.49754
 Alpha  occ. eigenvalues --   -0.49667  -0.49646  -0.49471  -0.49439  -0.49283
 Alpha  occ. eigenvalues --   -0.49233  -0.49179  -0.49093  -0.49048  -0.48960
 Alpha  occ. eigenvalues --   -0.48716  -0.48558  -0.48537  -0.48471  -0.47685
 Alpha  occ. eigenvalues --   -0.47669  -0.47110  -0.46456  -0.46022  -0.46006
 Alpha  occ. eigenvalues --   -0.45853  -0.45742  -0.45679  -0.45590  -0.45186
 Alpha  occ. eigenvalues --   -0.45121  -0.45113  -0.44824  -0.44620  -0.44475
 Alpha  occ. eigenvalues --   -0.44452  -0.44433  -0.44242  -0.44234  -0.44214
 Alpha  occ. eigenvalues --   -0.43366  -0.42991  -0.42531  -0.42486  -0.42426
 Alpha  occ. eigenvalues --   -0.42281  -0.42145  -0.42128  -0.42052  -0.41614
 Alpha  occ. eigenvalues --   -0.41589  -0.41541  -0.41017  -0.40977  -0.40785
 Alpha  occ. eigenvalues --   -0.40744  -0.40727  -0.40398  -0.40389  -0.40343
 Alpha  occ. eigenvalues --   -0.40206  -0.40168  -0.40156  -0.40131  -0.39854
 Alpha  occ. eigenvalues --   -0.39326  -0.39246  -0.39219  -0.39131  -0.38998
 Alpha  occ. eigenvalues --   -0.38914  -0.38883  -0.38808  -0.38695  -0.38662
 Alpha  occ. eigenvalues --   -0.38301  -0.38276  -0.38240  -0.37826  -0.37176
 Alpha  occ. eigenvalues --   -0.37171  -0.34643  -0.34622  -0.33542  -0.29987
 Alpha  occ. eigenvalues --   -0.25519
 Alpha virt. eigenvalues --   -0.11899  -0.06222  -0.06181  -0.04770  -0.04699
 Alpha virt. eigenvalues --   -0.04594  -0.01481  -0.01389  -0.01333  -0.01071
 Alpha virt. eigenvalues --   -0.00902  -0.00868  -0.00812  -0.00134  -0.00052

  Beta  occ. eigenvalues -- -197.10499-129.99101-129.99094-129.99062-101.62459
  Beta  occ. eigenvalues --  -22.42947 -19.28514 -19.28500 -19.28461 -19.28383
  Beta  occ. eigenvalues --  -19.28369 -19.28360 -19.28346 -19.28334 -19.28329
  Beta  occ. eigenvalues --  -19.28247 -19.28226 -19.28139 -19.26954 -19.26908
  Beta  occ. eigenvalues --  -19.26906 -19.26898 -19.26878 -19.26875 -19.26846
  Beta  occ. eigenvalues --  -19.26838 -19.26833 -19.26827 -19.26809 -19.26807
  Beta  occ. eigenvalues --  -19.26795 -19.26792 -19.26788 -19.26784 -19.26784
  Beta  occ. eigenvalues --  -19.26773 -19.26747 -19.26716 -19.26711 -19.26697
  Beta  occ. eigenvalues --  -19.26655 -19.26626 -19.24616 -19.24551 -19.24541
  Beta  occ. eigenvalues --  -19.24522 -18.93437 -18.91247 -18.91180 -13.36510
  Beta  occ. eigenvalues --  -13.36502 -13.36459 -10.69436 -10.69432 -10.69432
  Beta  occ. eigenvalues --  -10.69429 -10.69425 -10.69424 -10.69387 -10.69383
  Beta  occ. eigenvalues --  -10.69380 -10.33080 -10.32392 -10.31716 -10.30951
  Beta  occ. eigenvalues --  -10.30936 -10.30893 -10.30406 -10.30319  -9.52913
  Beta  occ. eigenvalues --   -7.28770  -7.27312  -7.27305  -3.21059  -3.21033
  Beta  occ. eigenvalues --   -3.21029  -3.21026  -3.20999  -3.20982  -3.20973
  Beta  occ. eigenvalues --   -3.20970  -3.20959  -3.20831  -3.20809  -3.20786
  Beta  occ. eigenvalues --   -2.74519  -1.85301  -1.85266  -1.85247  -1.85210
  Beta  occ. eigenvalues --   -1.85097  -1.85051  -1.85024  -1.85008  -1.84998
  Beta  occ. eigenvalues --   -1.84989  -1.84971  -1.84904  -1.84357  -1.84245
  Beta  occ. eigenvalues --   -1.84230  -1.84226  -1.84186  -1.84176  -1.84108
  Beta  occ. eigenvalues --   -1.84094  -1.84069  -1.84061  -1.84038  -1.84025
  Beta  occ. eigenvalues --   -1.83909  -1.83882  -1.83869  -1.83863  -1.83828
  Beta  occ. eigenvalues --   -1.83791  -1.83772  -1.83769  -1.83750  -1.83651
  Beta  occ. eigenvalues --   -1.83650  -1.83635  -1.80426  -1.75740  -1.75600
  Beta  occ. eigenvalues --   -1.50212  -1.50204  -1.50161  -1.08550  -1.06918
  Beta  occ. eigenvalues --   -1.06886  -1.06850  -1.05974  -1.05962  -1.05933
  Beta  occ. eigenvalues --   -1.04545  -1.04532  -1.04526  -1.03934  -1.03917
  Beta  occ. eigenvalues --   -1.03559  -1.03292  -1.03240  -1.03231  -1.03027
  Beta  occ. eigenvalues --   -1.02997  -1.02202  -1.02174  -1.02152  -1.02053
  Beta  occ. eigenvalues --   -1.02012  -1.01972  -1.01915  -1.01881  -1.01777
  Beta  occ. eigenvalues --   -1.01734  -1.01719  -1.01609  -1.01559  -1.01526
  Beta  occ. eigenvalues --   -1.01278  -1.00761  -1.00744  -1.00706  -1.00690
  Beta  occ. eigenvalues --   -0.99792  -0.99710  -0.99674  -0.96268  -0.89868
  Beta  occ. eigenvalues --   -0.85655  -0.85645  -0.85611  -0.85501  -0.85497
  Beta  occ. eigenvalues --   -0.85494  -0.85488  -0.85456  -0.85438  -0.84432
  Beta  occ. eigenvalues --   -0.84226  -0.82670  -0.72080  -0.69609  -0.65206
  Beta  occ. eigenvalues --   -0.62273  -0.61662  -0.61616  -0.61577  -0.60717
  Beta  occ. eigenvalues --   -0.58937  -0.58927  -0.58919  -0.58772  -0.58724
  Beta  occ. eigenvalues --   -0.58699  -0.58689  -0.58634  -0.58502  -0.57278
  Beta  occ. eigenvalues --   -0.57118  -0.57073  -0.56947  -0.56838  -0.56447
  Beta  occ. eigenvalues --   -0.56377  -0.56332  -0.55769  -0.55557  -0.55299
  Beta  occ. eigenvalues --   -0.55297  -0.55280  -0.54486  -0.54161  -0.54127
  Beta  occ. eigenvalues --   -0.53949  -0.53604  -0.53566  -0.53522  -0.52746
  Beta  occ. eigenvalues --   -0.52629  -0.52570  -0.52481  -0.52442  -0.51454
  Beta  occ. eigenvalues --   -0.51427  -0.51408  -0.51303  -0.51244  -0.50847
  Beta  occ. eigenvalues --   -0.50472  -0.50444  -0.50394  -0.50305  -0.50226
  Beta  occ. eigenvalues --   -0.50171  -0.50025  -0.50020  -0.49970  -0.49701
  Beta  occ. eigenvalues --   -0.49642  -0.49625  -0.49463  -0.49429  -0.49285
  Beta  occ. eigenvalues --   -0.49210  -0.49181  -0.49062  -0.49032  -0.48937
  Beta  occ. eigenvalues --   -0.48709  -0.48559  -0.48542  -0.48463  -0.47768
  Beta  occ. eigenvalues --   -0.47646  -0.47542  -0.45899  -0.45877  -0.45792
  Beta  occ. eigenvalues --   -0.45780  -0.45662  -0.45548  -0.45187  -0.45145
  Beta  occ. eigenvalues --   -0.45117  -0.45024  -0.44825  -0.44620  -0.44458
  Beta  occ. eigenvalues --   -0.44433  -0.44390  -0.44242  -0.44196  -0.44182
  Beta  occ. eigenvalues --   -0.43359  -0.43081  -0.42486  -0.42456  -0.42384
  Beta  occ. eigenvalues --   -0.42234  -0.42119  -0.42100  -0.42091  -0.41591
  Beta  occ. eigenvalues --   -0.41584  -0.41530  -0.41326  -0.41021  -0.40928
  Beta  occ. eigenvalues --   -0.40735  -0.40700  -0.40645  -0.40381  -0.40376
  Beta  occ. eigenvalues --   -0.40314  -0.40159  -0.40144  -0.40118  -0.39796
  Beta  occ. eigenvalues --   -0.39614  -0.39325  -0.39152  -0.39089  -0.39069
  Beta  occ. eigenvalues --   -0.38879  -0.38854  -0.38801  -0.38691  -0.38647
  Beta  occ. eigenvalues --   -0.38608  -0.38298  -0.38268  -0.38235  -0.37528
  Beta  occ. eigenvalues --   -0.37177  -0.37166  -0.35592  -0.35573  -0.33780
  Beta  occ. eigenvalues --   -0.30724
  Beta virt. eigenvalues --   -0.06221  -0.06181  -0.04769  -0.04698  -0.04593
  Beta virt. eigenvalues --   -0.01478  -0.01384  -0.01329  -0.01066  -0.00896
  Beta virt. eigenvalues --   -0.00864  -0.00809  -0.00132  -0.00042  -0.00011

 Mulliken charges and spin densities:
               1          2
     1  Cl  -0.353548  -0.616765
     2  C   -0.038302  -0.081655
     3  C    0.014745   0.047612
     4  C   -0.036034  -0.078394
     5  C   -0.031572   0.050382
     6  C    0.006408  -0.098355
     7  C   -0.049200   0.049684
     8  H    0.046864   0.003469
     9  H    0.049244   0.003368
    10  H    0.054038  -0.001784
    11  H    0.055260   0.004323
    12  H    0.052797  -0.001731
    13  C    0.000869  -0.209897
    14  C   -0.023952  -0.083916
    15  H    0.072953   0.009027
    16  H    0.094853   0.004571
    17  H    0.093264   0.003869
    18  O   -0.671747  -0.000565
    19  O   -0.668695  -0.000493
    20  O   -0.666301  -0.001903
    21  O   -0.670998  -0.000526
    22  W    1.716462   0.000353
    23  W    1.655392   0.000518
    24  W    1.667843   0.000192
    25  W    1.676234   0.000187
    26  W    1.660101   0.002803
    27  W    1.707495   0.002532
    28  W    1.612304   0.003349
    29  W    1.668650   0.002949
    30  O   -0.350756  -0.000530
    31  O   -0.394448  -0.000564
    32  O   -0.393998  -0.000599
    33  O   -0.392647  -0.000553
    34  O   -0.672139  -0.000303
    35  O   -0.677340  -0.000052
    36  O   -0.669456  -0.000145
    37  O   -0.671288  -0.000228
    38  O   -0.395934   0.002107
    39  O   -0.396647   0.002128
    40  O   -0.339379  -0.001076
    41  O   -0.395844   0.002114
    42  O   -0.677176   0.000073
    43  O   -0.670534   0.000178
    44  O   -0.666826   0.000298
    45  O   -0.673575   0.000097
    46  O   -0.395922   0.002323
    47  O   -0.352578   0.002208
    48  O   -0.387408   0.001783
    49  O   -0.395138   0.002379
    50  W    1.656647   0.002871
    51  W    1.660025   0.002760
    52  W    1.670416   0.003866
    53  W    1.667883   0.002702
    54  O   -0.720339   0.000105
    55  O   -0.703519   0.000008
    56  O   -0.721804   0.000176
    57  O   -0.718842   0.000063
    58  O   -0.701915  -0.000016
    59  O   -0.722336   0.000160
    60  O   -0.721054   0.000209
    61  O   -0.717259   0.000207
    62  O   -0.721259  -0.000175
    63  O   -0.704761  -0.000011
    64  O   -0.720573  -0.000193
    65  O   -0.723219  -0.000206
    66  O   -0.881867   0.005298
    67  O   -0.882383   0.007452
    68  O   -0.880031   0.007190
    69  O   -0.887670   0.006710
    70  K    0.850960   0.000201
    71  K    0.850523   0.000223
    72  K    0.846371   0.000249
    73  V    1.199609   0.935309
 Sum of Mulliken charges =  -1.00000   0.00000

 Dipole moment (field-independent basis, Debye):
    X=             29.4110    Y=            -13.7104    Z=            -30.7963  Tot=             44.7370
 Quadrupole moment (field-independent basis, Debye-Ang):
   XX=           -781.9921   YY=           -700.2141   ZZ=           -783.9287
   XY=            132.0490   XZ=            188.6548   YZ=            -93.3807

 Normal termination of Gaussian 16 at Sat Jun  1 22:39:57 2024.
