 Gaussian 16, Revision C.01,
 Gaussian 16:  ES64L-G16RevC.01  3-Jul-2019

 ----------------------------------------------------------------------
 # def2svp wb97xd scrf=(smd,solvent=acetonitrile) g09default scf=(xqc,m
 axcycle=64) force guess=read nosymm
 ----------------------------------------------------------------------

 ----------
 Title Card
 ----------
 Symbolic Z-matrix:
 Charge = -1 Multiplicity = 1

                          Input orientation:
 ---------------------------------------------------------------------
 Center     Atomic      Atomic             Coordinates (Angstroms)
 Number     Number       Type             X           Y           Z
 ---------------------------------------------------------------------
      1         17           0       -9.839473    7.503489   10.361303
      2          6           0       -8.307956    4.255688   12.241197
      3          6           0       -9.077475    3.941350   11.103738
      4          6           0      -10.010576    2.888865   11.193800
      5          6           0      -10.185025    2.190239   12.378756
      6          6           0       -9.424204    2.524648   13.503551
      7          6           0       -8.482739    3.552260   13.426209
      8          1           0       -7.571079    5.061970   12.198789
      9          1           0      -10.600110    2.628202   10.308623
     10          1           0      -10.912764    1.377820   12.433483
     11          1           0       -9.558991    1.976046   14.435134
     12          1           0       -7.882481    3.808603   14.303309
     13          6           0       -8.939776    4.664728    9.844525
     14          6           0       -8.128693    5.700897    9.601855
     15          1           0       -9.610460    4.321144    9.043021
     16          1           0       -8.042135    6.117127    8.586315
     17          1           0       -7.358724    6.041939   10.314046
     18          8           0       -0.973585   -1.764382    7.443098
     19          8           0       -8.447333   -1.322900    7.450778
     20          8           0       -7.087304    1.365680   10.506722
     21          8           0       -2.312318   -4.375282   10.578108
     22         74           0       -3.418919    0.748557    6.523366
     23         74           0       -6.027081   -3.826544    6.601493
     24         74           0       -3.644356    0.932526   11.386172
     25         74           0       -5.767956   -3.878587   11.457351
     26         74           0       -2.473547   -2.533225    6.372002
     27         74           0       -6.945757   -0.546461    6.349343
     28         74           0       -6.818829   -0.246606   11.603318
     29         74           0       -2.584762   -2.695493   11.633540
     30          8           0       -3.210260    1.932045    5.363944
     31          8           0       -6.133631   -5.070525    5.474357
     32          8           0       -2.716731    1.754444   12.524487
     33          8           0       -6.687464   -4.665283   12.625701
     34          8           0       -2.682651   -0.859170    5.574032
     35          8           0       -6.730480   -2.278733    5.613535
     36          8           0       -5.329282    0.585299   12.381748
     37          8           0       -4.065614   -3.525434   12.429384
     38          8           0        0.278149   -0.006995    9.281620
     39          8           0       -9.699156   -3.012047    9.343564
     40          8           0       -6.450572    3.401151    8.674758
     41          8           0       -2.974814   -6.432351    8.740236
     42          8           0       -1.790423    0.794786    7.482679
     43          8           0       -7.637259   -3.885308    7.554359
     44          8           0       -4.547764    2.250265   10.433634
     45          8           0       -4.860483   -5.235610   10.531108
     46          8           0       -1.658022   -3.471615    5.237567
     47          8           0       -7.809123    0.256776    5.167087
     48          8           0       -8.025590   -0.181825   12.771269
     49          8           0       -1.353957   -2.789649   12.776521
     50         74           0       -1.254367   -0.536109    8.830228
     51         74           0       -8.169036   -2.490812    8.875069
     52         74           0       -5.970719    1.857136    9.063330
     53         74           0       -3.448142   -4.877551    9.176179
     54          8           0       -4.243404   -3.071180    6.089031
     55          8           0       -5.169920   -0.053529    6.037957
     56          8           0       -6.165299   -1.990627   11.906346
     57          8           0       -3.216448   -0.958480   11.912572
     58          8           0       -4.398400    1.588480    7.868170
     59          8           0       -5.012607   -4.647113    7.950670
     60          8           0       -2.367226    0.589824   10.059873
     61          8           0       -7.044984   -3.595772   10.121162
     62          8           0       -2.571044   -3.860807    7.870926
     63          8           0       -6.860374    0.785625    7.812331
     64          8           0       -7.845730   -1.159531   10.151760
     65          8           0       -1.575959   -1.844772   10.142812
     66          8           0       -3.359103   -1.139898    8.017967
     67          8           0       -6.061397   -1.931947    8.042347
     68          8           0       -5.171202   -0.178401    9.945668
     69          8           0       -4.225654   -2.830415    9.981213
     70         19           0       -3.247318   -6.067661    5.703481
     71         19           0       -0.199742    0.016587   12.312033
     72         19           0       -9.214869   -2.918154   12.365205
     73         23           0       -4.706300   -1.515820    8.995012
 ---------------------------------------------------------------------

 SCF Done:  E(RwB97XD) =  -7327.67413935     A.U. after   19 cycles

 Alpha  occ. eigenvalues -- -197.30447-129.99951-129.99922-129.99825-101.48587
 Alpha  occ. eigenvalues --  -22.63433 -19.33708 -19.33699 -19.33686 -19.33681
 Alpha  occ. eigenvalues --  -19.30814 -19.30797 -19.30788 -19.30776 -19.30747
 Alpha  occ. eigenvalues --  -19.30731 -19.30730 -19.30695 -19.30580 -19.30409
 Alpha  occ. eigenvalues --  -19.30386 -19.30115 -19.29099 -19.29094 -19.29061
 Alpha  occ. eigenvalues --  -19.29056 -19.29054 -19.29040 -19.29038 -19.29033
 Alpha  occ. eigenvalues --  -19.29017 -19.28995 -19.28989 -19.28979 -19.28975
 Alpha  occ. eigenvalues --  -19.28960 -19.28937 -19.28913 -19.28896 -19.28861
 Alpha  occ. eigenvalues --  -19.28794 -19.28782 -19.28738 -19.28693 -19.28669
 Alpha  occ. eigenvalues --  -19.28578 -19.12412 -19.12403 -19.12382 -13.37345
 Alpha  occ. eigenvalues --  -13.37315 -13.37206 -10.70275 -10.70268 -10.70268
 Alpha  occ. eigenvalues --  -10.70246 -10.70238 -10.70238 -10.70139 -10.70131
 Alpha  occ. eigenvalues --  -10.70129 -10.29098 -10.28894 -10.28852 -10.28392
 Alpha  occ. eigenvalues --  -10.28282 -10.28234 -10.27921 -10.25397  -9.39117
 Alpha  occ. eigenvalues --   -7.13978  -7.13867  -7.13854  -3.23118  -3.23094
 Alpha  occ. eigenvalues --   -3.23071  -3.23053  -3.23052  -3.23041  -3.23008
 Alpha  occ. eigenvalues --   -3.22978  -3.22935  -3.22711  -3.22659  -3.22346
 Alpha  occ. eigenvalues --   -2.92285  -1.94571  -1.94516  -1.94501  -1.87793
 Alpha  occ. eigenvalues --   -1.87702  -1.87687  -1.87614  -1.87557  -1.87534
 Alpha  occ. eigenvalues --   -1.87504  -1.87484  -1.87417  -1.87300  -1.87268
 Alpha  occ. eigenvalues --   -1.87032  -1.86382  -1.86262  -1.86252  -1.86232
 Alpha  occ. eigenvalues --   -1.86204  -1.86160  -1.86082  -1.86058  -1.86041
 Alpha  occ. eigenvalues --   -1.86039  -1.85993  -1.85970  -1.85907  -1.85872
 Alpha  occ. eigenvalues --   -1.85861  -1.85826  -1.85797  -1.85731  -1.85693
 Alpha  occ. eigenvalues --   -1.85609  -1.85590  -1.85498  -1.85314  -1.85221
 Alpha  occ. eigenvalues --   -1.51052  -1.51024  -1.50918  -1.12984  -1.11286
 Alpha  occ. eigenvalues --   -1.11191  -1.11177  -1.08687  -1.08217  -1.08144
 Alpha  occ. eigenvalues --   -1.07914  -1.07301  -1.07217  -1.07205  -1.06571
 Alpha  occ. eigenvalues --   -1.06551  -1.06510  -1.05947  -1.05901  -1.05212
 Alpha  occ. eigenvalues --   -1.05191  -1.04728  -1.04707  -1.04700  -1.04326
 Alpha  occ. eigenvalues --   -1.04313  -1.04284  -1.04174  -1.04139  -1.04068
 Alpha  occ. eigenvalues --   -1.03913  -1.03888  -1.03848  -1.03792  -1.03774
 Alpha  occ. eigenvalues --   -1.03663  -1.03463  -1.03418  -1.03363  -1.03168
 Alpha  occ. eigenvalues --   -1.02875  -1.02795  -1.02745  -0.93756  -0.86537
 Alpha  occ. eigenvalues --   -0.86511  -0.86415  -0.86342  -0.86337  -0.86313
 Alpha  occ. eigenvalues --   -0.86307  -0.86212  -0.86199  -0.85708  -0.82381
 Alpha  occ. eigenvalues --   -0.79131  -0.71903  -0.69073  -0.67445  -0.64104
 Alpha  occ. eigenvalues --   -0.63557  -0.63477  -0.63457  -0.63251  -0.63222
 Alpha  occ. eigenvalues --   -0.62972  -0.62626  -0.62449  -0.62297  -0.61948
 Alpha  occ. eigenvalues --   -0.61480  -0.61459  -0.61351  -0.60831  -0.60814
 Alpha  occ. eigenvalues --   -0.60736  -0.60086  -0.59195  -0.59175  -0.59155
 Alpha  occ. eigenvalues --   -0.59122  -0.59048  -0.58020  -0.57724  -0.57696
 Alpha  occ. eigenvalues --   -0.57605  -0.57222  -0.57144  -0.57083  -0.56269
 Alpha  occ. eigenvalues --   -0.56227  -0.56079  -0.55723  -0.54980  -0.54918
 Alpha  occ. eigenvalues --   -0.54869  -0.54292  -0.54218  -0.54125  -0.54105
 Alpha  occ. eigenvalues --   -0.54019  -0.53883  -0.53220  -0.53146  -0.53046
 Alpha  occ. eigenvalues --   -0.52993  -0.52794  -0.52621  -0.52581  -0.52530
 Alpha  occ. eigenvalues --   -0.52460  -0.52393  -0.52325  -0.51917  -0.51701
 Alpha  occ. eigenvalues --   -0.51682  -0.51507  -0.51489  -0.51453  -0.51402
 Alpha  occ. eigenvalues --   -0.51356  -0.51278  -0.51074  -0.50894  -0.50828
 Alpha  occ. eigenvalues --   -0.50763  -0.50308  -0.49865  -0.49790  -0.49350
 Alpha  occ. eigenvalues --   -0.49302  -0.49284  -0.49154  -0.49044  -0.48965
 Alpha  occ. eigenvalues --   -0.48873  -0.48283  -0.48163  -0.48011  -0.47304
 Alpha  occ. eigenvalues --   -0.47249  -0.47192  -0.46920  -0.46884  -0.46843
 Alpha  occ. eigenvalues --   -0.46689  -0.46374  -0.46297  -0.46205  -0.46140
 Alpha  occ. eigenvalues --   -0.46085  -0.46071  -0.45155  -0.45000  -0.44824
 Alpha  occ. eigenvalues --   -0.44749  -0.44034  -0.43982  -0.43835  -0.43259
 Alpha  occ. eigenvalues --   -0.43209  -0.43103  -0.43067  -0.43009  -0.42805
 Alpha  occ. eigenvalues --   -0.42698  -0.42665  -0.42642  -0.42540  -0.42515
 Alpha  occ. eigenvalues --   -0.42502  -0.42465  -0.42350  -0.42313  -0.42234
 Alpha  occ. eigenvalues --   -0.42201  -0.42043  -0.41998  -0.41886  -0.41843
 Alpha  occ. eigenvalues --   -0.41032  -0.41018  -0.40868  -0.40616  -0.40328
 Alpha  occ. eigenvalues --   -0.40279  -0.40264  -0.39502  -0.39223  -0.39176
 Alpha  occ. eigenvalues --   -0.36551  -0.32204  -0.29593  -0.25485  -0.25351
 Alpha  occ. eigenvalues --   -0.21249
 Alpha virt. eigenvalues --   -0.10189  -0.09757  -0.08081  -0.07913  -0.06640
 Alpha virt. eigenvalues --   -0.06584  -0.06453  -0.05386  -0.04610  -0.04545
 Alpha virt. eigenvalues --   -0.03414  -0.03287  -0.03245  -0.02828  -0.02702

 Mulliken charges:
               1
     1  Cl  -0.848067
     2  C   -0.096477
     3  C    0.048852
     4  C   -0.086850
     5  C   -0.032936
     6  C   -0.045774
     7  C   -0.049223
     8  H    0.019027
     9  H    0.022649
    10  H    0.035371
    11  H    0.028754
    12  H    0.034193
    13  C   -0.084021
    14  C    0.043988
    15  H   -0.006813
    16  H    0.030485
    17  H    0.035613
    18  O   -0.660880
    19  O   -0.658772
    20  O   -0.650819
    21  O   -0.660852
    22  W    1.723954
    23  W    1.660829
    24  W    1.671747
    25  W    1.682986
    26  W    1.667994
    27  W    1.725065
    28  W    1.614272
    29  W    1.680677
    30  O   -0.309042
    31  O   -0.357378
    32  O   -0.356954
    33  O   -0.355106
    34  O   -0.662240
    35  O   -0.671154
    36  O   -0.659670
    37  O   -0.662393
    38  O   -0.357744
    39  O   -0.358236
    40  O   -0.273959
    41  O   -0.356980
    42  O   -0.669709
    43  O   -0.660836
    44  O   -0.656368
    45  O   -0.663550
    46  O   -0.357596
    47  O   -0.308718
    48  O   -0.344845
    49  O   -0.356352
    50  W    1.666164
    51  W    1.670730
    52  W    1.664697
    53  W    1.676599
    54  O   -0.724486
    55  O   -0.708340
    56  O   -0.728325
    57  O   -0.722018
    58  O   -0.706095
    59  O   -0.728295
    60  O   -0.725765
    61  O   -0.723578
    62  O   -0.723987
    63  O   -0.708545
    64  O   -0.722938
    65  O   -0.727985
    66  O   -0.805106
    67  O   -0.805693
    68  O   -0.799938
    69  O   -0.813713
    70  K    0.860037
    71  K    0.859556
    72  K    0.855297
    73  V    1.175581
 Sum of Mulliken charges =  -1.00000

 Dipole moment (field-independent basis, Debye):
    X=             50.9368    Y=            -46.3051    Z=            -38.8488  Tot=             79.0440
 Quadrupole moment (field-independent basis, Debye-Ang):
   XX=          -1059.9366   YY=           -822.5567   ZZ=           -920.3063
   XY=            407.8043   XZ=            457.4385   YZ=           -425.8635

 Normal termination of Gaussian 16 at Sat Jun  1 10:55:38 2024.
