 Gaussian 16, Revision C.01,
 Gaussian 16:  ES64L-G16RevC.01  3-Jul-2019

 ----------------------------------------------------------------------
 # def2svp wb97xd scrf=(smd,solvent=acetonitrile) g09default scf=(xqc,m
 axcycle=64) force guess=read nosymm
 ----------------------------------------------------------------------

 ----------
 Title Card
 ----------
 Symbolic Z-matrix:
 Charge = -1 Multiplicity = 1

                          Input orientation:
 ---------------------------------------------------------------------
 Center     Atomic      Atomic             Coordinates (Angstroms)
 Number     Number       Type             X           Y           Z
 ---------------------------------------------------------------------
      1         17           0       -9.839473    7.503489   10.361303
      2          6           0       -8.307956    4.255688   12.241197
      3          6           0       -9.077475    3.941350   11.103738
      4          6           0      -10.010576    2.888865   11.193800
      5          6           0      -10.185025    2.190239   12.378756
      6          6           0       -9.424204    2.524648   13.503551
      7          6           0       -8.482739    3.552260   13.426209
      8          1           0       -7.571079    5.061970   12.198789
      9          1           0      -10.600110    2.628202   10.308623
     10          1           0      -10.912764    1.377820   12.433483
     11          1           0       -9.558991    1.976046   14.435134
     12          1           0       -7.882481    3.808603   14.303309
     13          6           0       -8.939776    4.664728    9.844525
     14          6           0       -8.128693    5.700897    9.601855
     15          1           0       -9.610460    4.321144    9.043021
     16          1           0       -8.042135    6.117127    8.586315
     17          1           0       -7.358724    6.041939   10.314046
     18          8           0       -0.973585   -1.764382    7.443098
     19          8           0       -8.447333   -1.322900    7.450778
     20          8           0       -7.087304    1.365680   10.506722
     21          8           0       -2.312318   -4.375282   10.578108
     22         74           0       -3.418919    0.748557    6.523366
     23         74           0       -6.027081   -3.826544    6.601493
     24         74           0       -3.644356    0.932526   11.386172
     25         74           0       -5.767956   -3.878587   11.457351
     26         74           0       -2.473547   -2.533225    6.372002
     27         74           0       -6.945757   -0.546461    6.349343
     28         74           0       -6.818829   -0.246606   11.603318
     29         74           0       -2.584762   -2.695493   11.633540
     30          8           0       -3.210260    1.932045    5.363944
     31          8           0       -6.133631   -5.070525    5.474357
     32          8           0       -2.716731    1.754444   12.524487
     33          8           0       -6.687464   -4.665283   12.625701
     34          8           0       -2.682651   -0.859170    5.574032
     35          8           0       -6.730480   -2.278733    5.613535
     36          8           0       -5.329282    0.585299   12.381748
     37          8           0       -4.065614   -3.525434   12.429384
     38          8           0        0.278149   -0.006995    9.281620
     39          8           0       -9.699156   -3.012047    9.343564
     40          8           0       -6.450572    3.401151    8.674758
     41          8           0       -2.974814   -6.432351    8.740236
     42          8           0       -1.790423    0.794786    7.482679
     43          8           0       -7.637259   -3.885308    7.554359
     44          8           0       -4.547764    2.250265   10.433634
     45          8           0       -4.860483   -5.235610   10.531108
     46          8           0       -1.658022   -3.471615    5.237567
     47          8           0       -7.809123    0.256776    5.167087
     48          8           0       -8.025590   -0.181825   12.771269
     49          8           0       -1.353957   -2.789649   12.776521
     50         74           0       -1.254367   -0.536109    8.830228
     51         74           0       -8.169036   -2.490812    8.875069
     52         74           0       -5.970719    1.857136    9.063330
     53         74           0       -3.448142   -4.877551    9.176179
     54          8           0       -4.243404   -3.071180    6.089031
     55          8           0       -5.169920   -0.053529    6.037957
     56          8           0       -6.165299   -1.990627   11.906346
     57          8           0       -3.216448   -0.958480   11.912572
     58          8           0       -4.398400    1.588480    7.868170
     59          8           0       -5.012607   -4.647113    7.950670
     60          8           0       -2.367226    0.589824   10.059873
     61          8           0       -7.044984   -3.595772   10.121162
     62          8           0       -2.571044   -3.860807    7.870926
     63          8           0       -6.860374    0.785625    7.812331
     64          8           0       -7.845730   -1.159531   10.151760
     65          8           0       -1.575959   -1.844772   10.142812
     66          8           0       -3.359103   -1.139898    8.017967
     67          8           0       -6.061397   -1.931947    8.042347
     68          8           0       -5.171202   -0.178401    9.945668
     69          8           0       -4.225654   -2.830415    9.981213
     70         19           0       -3.247318   -6.067661    5.703481
     71         19           0       -0.199742    0.016587   12.312033
     72         19           0       -9.214869   -2.918154   12.365205
     73         23           0       -4.706300   -1.515820    8.995012
 ---------------------------------------------------------------------

 SCF Done:  E(UwB97XD) =  -7327.71255172     A.U. after   48 cycles

 Alpha  occ. eigenvalues --  -19.24828 -18.95349 -18.94272 -18.94240 -13.36322
 Alpha  occ. eigenvalues --  -13.36310 -13.36260 -10.69250 -10.69246 -10.69245
 Alpha  occ. eigenvalues --  -10.69238 -10.69234 -10.69234 -10.69190 -10.69185
 Alpha  occ. eigenvalues --  -10.69183 -10.33172 -10.32799 -10.31622 -10.30778
 Alpha  occ. eigenvalues --  -10.30747 -10.30718 -10.30378 -10.30311  -9.51123
 Alpha  occ. eigenvalues --   -7.25980  -7.25712  -7.25689  -3.20895  -3.20887
 Alpha  occ. eigenvalues --   -3.20858  -3.20842  -3.20839  -3.20825  -3.20811
 Alpha  occ. eigenvalues --   -3.20802  -3.20782  -3.20680  -3.20621  -3.20614
 Alpha  occ. eigenvalues --   -2.79587  -1.85434  -1.85386  -1.85347  -1.85307
 Alpha  occ. eigenvalues --   -1.85216  -1.85184  -1.85164  -1.85136  -1.85108
 Alpha  occ. eigenvalues --   -1.85089  -1.85067  -1.85023  -1.84171  -1.84054
 Alpha  occ. eigenvalues --   -1.84052  -1.84033  -1.83995  -1.83982  -1.83924
 Alpha  occ. eigenvalues --   -1.83897  -1.83873  -1.83862  -1.83840  -1.83834
 Alpha  occ. eigenvalues --   -1.83721  -1.83687  -1.83680  -1.83666  -1.83632
 Alpha  occ. eigenvalues --   -1.83591  -1.83572  -1.83565  -1.83543  -1.83458
 Alpha  occ. eigenvalues --   -1.83444  -1.83420  -1.82629  -1.82274  -1.82257
 Alpha  occ. eigenvalues --   -1.50045  -1.50032  -1.49986  -1.08429  -1.06835
 Alpha  occ. eigenvalues --   -1.06778  -1.06766  -1.05713  -1.05702  -1.05658
 Alpha  occ. eigenvalues --   -1.04323  -1.04305  -1.04288  -1.03832  -1.03666
 Alpha  occ. eigenvalues --   -1.03647  -1.03353  -1.03313  -1.03279  -1.03036
 Alpha  occ. eigenvalues --   -1.02989  -1.02370  -1.02349  -1.02301  -1.02259
 Alpha  occ. eigenvalues --   -1.02198  -1.02160  -1.02080  -1.02056  -1.01903
 Alpha  occ. eigenvalues --   -1.01747  -1.01719  -1.01523  -1.01491  -1.01399
 Alpha  occ. eigenvalues --   -1.01089  -1.00964  -1.00564  -1.00513  -1.00500
 Alpha  occ. eigenvalues --   -1.00145  -1.00088  -1.00000  -0.96014  -0.89447
 Alpha  occ. eigenvalues --   -0.85509  -0.85494  -0.85459  -0.85345  -0.85340
 Alpha  occ. eigenvalues --   -0.85333  -0.85329  -0.85291  -0.85277  -0.84180
 Alpha  occ. eigenvalues --   -0.82661  -0.80046  -0.71827  -0.69451  -0.64897
 Alpha  occ. eigenvalues --   -0.61858  -0.61326  -0.61272  -0.61243  -0.60518
 Alpha  occ. eigenvalues --   -0.58773  -0.58722  -0.58609  -0.58598  -0.58584
 Alpha  occ. eigenvalues --   -0.58555  -0.58536  -0.58486  -0.58315  -0.57418
 Alpha  occ. eigenvalues --   -0.57364  -0.57337  -0.57002  -0.56744  -0.56369
 Alpha  occ. eigenvalues --   -0.56320  -0.56280  -0.55897  -0.55802  -0.55233
 Alpha  occ. eigenvalues --   -0.55222  -0.55187  -0.54372  -0.54269  -0.54262
 Alpha  occ. eigenvalues --   -0.54090  -0.53846  -0.53749  -0.53689  -0.52851
 Alpha  occ. eigenvalues --   -0.52766  -0.52655  -0.52606  -0.52559  -0.51687
 Alpha  occ. eigenvalues --   -0.51621  -0.51471  -0.51411  -0.51327  -0.50786
 Alpha  occ. eigenvalues --   -0.50656  -0.50639  -0.50589  -0.50444  -0.50397
 Alpha  occ. eigenvalues --   -0.50333  -0.50210  -0.50123  -0.50102  -0.50023
 Alpha  occ. eigenvalues --   -0.49932  -0.49911  -0.49647  -0.49627  -0.49462
 Alpha  occ. eigenvalues --   -0.49296  -0.49194  -0.49122  -0.49066  -0.49008
 Alpha  occ. eigenvalues --   -0.48931  -0.48814  -0.48756  -0.48655  -0.47611
 Alpha  occ. eigenvalues --   -0.47557  -0.47113  -0.46509  -0.46199  -0.46183
 Alpha  occ. eigenvalues --   -0.46079  -0.45874  -0.45662  -0.45525  -0.45121
 Alpha  occ. eigenvalues --   -0.45086  -0.45069  -0.44726  -0.44612  -0.44588
 Alpha  occ. eigenvalues --   -0.44540  -0.44486  -0.44187  -0.44164  -0.44078
 Alpha  occ. eigenvalues --   -0.43454  -0.42992  -0.42630  -0.42600  -0.42454
 Alpha  occ. eigenvalues --   -0.42268  -0.42092  -0.42040  -0.41929  -0.41635
 Alpha  occ. eigenvalues --   -0.41608  -0.41573  -0.41085  -0.41033  -0.40755
 Alpha  occ. eigenvalues --   -0.40724  -0.40679  -0.40369  -0.40359  -0.40316
 Alpha  occ. eigenvalues --   -0.40199  -0.40178  -0.40158  -0.40121  -0.39837
 Alpha  occ. eigenvalues --   -0.39480  -0.39379  -0.39255  -0.39122  -0.39076
 Alpha  occ. eigenvalues --   -0.38912  -0.38869  -0.38780  -0.38739  -0.38650
 Alpha  occ. eigenvalues --   -0.38425  -0.38132  -0.38079  -0.38035  -0.37055
 Alpha  occ. eigenvalues --   -0.36974  -0.34010  -0.33856  -0.33462  -0.31598
 Alpha  occ. eigenvalues --   -0.26773
 Alpha virt. eigenvalues --   -0.08617  -0.06011  -0.05839  -0.04534  -0.04465
 Alpha virt. eigenvalues --   -0.04328  -0.01316  -0.01227  -0.01174  -0.00672
 Alpha virt. eigenvalues --   -0.00471  -0.00444  -0.00398   0.00215   0.00284

  Beta  occ. eigenvalues -- -197.12213-129.98923-129.98911-129.98873-101.61078
  Beta  occ. eigenvalues --  -22.44493 -19.28652 -19.28627 -19.28611 -19.28522
  Beta  occ. eigenvalues --  -19.28495 -19.28479 -19.28472 -19.28464 -19.28458
  Beta  occ. eigenvalues --  -19.28428 -19.28370 -19.28248 -19.26825 -19.26774
  Beta  occ. eigenvalues --  -19.26754 -19.26724 -19.26720 -19.26700 -19.26682
  Beta  occ. eigenvalues --  -19.26679 -19.26674 -19.26669 -19.26658 -19.26644
  Beta  occ. eigenvalues --  -19.26636 -19.26621 -19.26620 -19.26616 -19.26610
  Beta  occ. eigenvalues --  -19.26570 -19.26547 -19.26546 -19.26537 -19.26523
  Beta  occ. eigenvalues --  -19.26520 -19.26463 -19.24883 -19.24847 -19.24820
  Beta  occ. eigenvalues --  -19.24804 -18.94998 -18.92817 -18.92754 -13.36322
  Beta  occ. eigenvalues --  -13.36310 -13.36260 -10.69250 -10.69246 -10.69245
  Beta  occ. eigenvalues --  -10.69238 -10.69234 -10.69234 -10.69190 -10.69185
  Beta  occ. eigenvalues --  -10.69183 -10.33339 -10.33194 -10.31530 -10.30895
  Beta  occ. eigenvalues --  -10.30862 -10.30848 -10.30313 -10.30242  -9.51538
  Beta  occ. eigenvalues --   -7.27246  -7.25997  -7.25971  -3.20893  -3.20883
  Beta  occ. eigenvalues --   -3.20858  -3.20839  -3.20837  -3.20819  -3.20806
  Beta  occ. eigenvalues --   -3.20797  -3.20777  -3.20679  -3.20621  -3.20610
  Beta  occ. eigenvalues --   -2.75487  -1.85430  -1.85381  -1.85342  -1.85300
  Beta  occ. eigenvalues --   -1.85214  -1.85180  -1.85160  -1.85131  -1.85100
  Beta  occ. eigenvalues --   -1.85084  -1.85060  -1.85015  -1.84168  -1.84052
  Beta  occ. eigenvalues --   -1.84048  -1.84031  -1.83992  -1.83979  -1.83922
  Beta  occ. eigenvalues --   -1.83894  -1.83870  -1.83859  -1.83837  -1.83831
  Beta  occ. eigenvalues --   -1.83719  -1.83684  -1.83678  -1.83663  -1.83631
  Beta  occ. eigenvalues --   -1.83588  -1.83569  -1.83563  -1.83540  -1.83457
  Beta  occ. eigenvalues --   -1.83441  -1.83418  -1.81263  -1.76523  -1.76389
  Beta  occ. eigenvalues --   -1.50045  -1.50032  -1.49986  -1.08410  -1.06815
  Beta  occ. eigenvalues --   -1.06754  -1.06735  -1.05711  -1.05700  -1.05659
  Beta  occ. eigenvalues --   -1.04325  -1.04305  -1.04288  -1.03779  -1.03665
  Beta  occ. eigenvalues --   -1.03647  -1.03320  -1.03275  -1.03244  -1.03035
  Beta  occ. eigenvalues --   -1.02980  -1.02366  -1.02342  -1.02287  -1.02252
  Beta  occ. eigenvalues --   -1.02194  -1.02152  -1.02077  -1.02048  -1.01898
  Beta  occ. eigenvalues --   -1.01745  -1.01713  -1.01522  -1.01491  -1.01399
  Beta  occ. eigenvalues --   -1.01090  -1.00921  -1.00565  -1.00514  -1.00501
  Beta  occ. eigenvalues --   -1.00017  -0.99949  -0.99905  -0.96274  -0.90403
  Beta  occ. eigenvalues --   -0.85509  -0.85494  -0.85459  -0.85345  -0.85340
  Beta  occ. eigenvalues --   -0.85333  -0.85329  -0.85291  -0.85277  -0.84338
  Beta  occ. eigenvalues --   -0.83795  -0.82184  -0.72172  -0.69573  -0.65207
  Beta  occ. eigenvalues --   -0.61858  -0.61326  -0.61272  -0.61243  -0.60766
  Beta  occ. eigenvalues --   -0.58706  -0.58613  -0.58597  -0.58587  -0.58569
  Beta  occ. eigenvalues --   -0.58544  -0.58534  -0.58473  -0.58316  -0.57353
  Beta  occ. eigenvalues --   -0.57234  -0.57183  -0.57051  -0.56904  -0.56374
  Beta  occ. eigenvalues --   -0.56292  -0.56251  -0.55764  -0.55540  -0.55218
  Beta  occ. eigenvalues --   -0.55207  -0.55194  -0.54589  -0.54266  -0.54250
  Beta  occ. eigenvalues --   -0.54077  -0.53819  -0.53721  -0.53670  -0.52855
  Beta  occ. eigenvalues --   -0.52745  -0.52650  -0.52624  -0.52599  -0.51613
  Beta  occ. eigenvalues --   -0.51549  -0.51433  -0.51381  -0.51320  -0.51014
  Beta  occ. eigenvalues --   -0.50623  -0.50586  -0.50519  -0.50421  -0.50373
  Beta  occ. eigenvalues --   -0.50332  -0.50190  -0.50127  -0.50087  -0.49990
  Beta  occ. eigenvalues --   -0.49924  -0.49909  -0.49646  -0.49621  -0.49459
  Beta  occ. eigenvalues --   -0.49264  -0.49192  -0.49106  -0.49020  -0.48993
  Beta  occ. eigenvalues --   -0.48905  -0.48795  -0.48738  -0.48664  -0.47918
  Beta  occ. eigenvalues --   -0.47535  -0.47493  -0.46073  -0.46056  -0.45992
  Beta  occ. eigenvalues --   -0.45822  -0.45720  -0.45602  -0.45150  -0.45119
  Beta  occ. eigenvalues --   -0.45073  -0.45029  -0.44727  -0.44562  -0.44542
  Beta  occ. eigenvalues --   -0.44517  -0.44481  -0.44209  -0.44160  -0.44073
  Beta  occ. eigenvalues --   -0.43457  -0.43126  -0.42898  -0.42564  -0.42439
  Beta  occ. eigenvalues --   -0.42310  -0.42153  -0.42028  -0.42003  -0.41914
  Beta  occ. eigenvalues --   -0.41615  -0.41574  -0.41536  -0.41082  -0.40989
  Beta  occ. eigenvalues --   -0.40746  -0.40653  -0.40646  -0.40351  -0.40343
  Beta  occ. eigenvalues --   -0.40287  -0.40172  -0.40153  -0.40134  -0.39775
  Beta  occ. eigenvalues --   -0.39554  -0.39490  -0.39141  -0.39080  -0.39053
  Beta  occ. eigenvalues --   -0.38928  -0.38855  -0.38833  -0.38752  -0.38703
  Beta  occ. eigenvalues --   -0.38597  -0.38136  -0.38077  -0.38035  -0.37057
  Beta  occ. eigenvalues --   -0.36970  -0.36062  -0.34659  -0.34543  -0.33803
  Beta  occ. eigenvalues --   -0.29467
  Beta virt. eigenvalues --   -0.06011  -0.05840  -0.04534  -0.04465  -0.04327
  Beta virt. eigenvalues --   -0.01312  -0.01222  -0.01169  -0.00666  -0.00464
  Beta virt. eigenvalues --   -0.00444  -0.00395   0.00240   0.00322   0.00381

 Mulliken charges and spin densities:
               1          2
     1  Cl  -0.399517  -0.519679
     2  C   -0.036717  -0.110426
     3  C    0.005519   0.091371
     4  C   -0.030577  -0.105583
     5  C   -0.032038   0.067202
     6  C    0.003393  -0.121568
     7  C   -0.048160   0.065636
     8  H    0.045660   0.004666
     9  H    0.049103   0.004498
    10  H    0.053436  -0.002437
    11  H    0.053103   0.005359
    12  H    0.052210  -0.002339
    13  C    0.017317  -0.349446
    14  C   -0.009405  -0.041659
    15  H    0.074363   0.015153
    16  H    0.104032   0.001872
    17  H    0.107114   0.001550
    18  O   -0.670373  -0.000557
    19  O   -0.668465  -0.000500
    20  O   -0.663607  -0.001964
    21  O   -0.670559  -0.000527
    22  W    1.708187   0.000289
    23  W    1.646794   0.000491
    24  W    1.660213   0.000109
    25  W    1.669374   0.000152
    26  W    1.655162   0.002421
    27  W    1.708275   0.002091
    28  W    1.609049   0.002690
    29  W    1.667600   0.002485
    30  O   -0.337762  -0.000522
    31  O   -0.384878  -0.000546
    32  O   -0.384213  -0.000583
    33  O   -0.382831  -0.000548
    34  O   -0.671300  -0.000394
    35  O   -0.678994  -0.000152
    36  O   -0.669084  -0.000240
    37  O   -0.672079  -0.000319
    38  O   -0.386842   0.001916
    39  O   -0.387514   0.001967
    40  O   -0.326824  -0.001287
    41  O   -0.386288   0.001936
    42  O   -0.677737   0.000019
    43  O   -0.670089   0.000133
    44  O   -0.665737   0.000221
    45  O   -0.672516   0.000079
    46  O   -0.386878   0.002158
    47  O   -0.339500   0.002035
    48  O   -0.377768   0.001722
    49  O   -0.385765   0.002194
    50  W    1.652724   0.002550
    51  W    1.657540   0.002411
    52  W    1.668838   0.003372
    53  W    1.662706   0.002375
    54  O   -0.722093   0.000060
    55  O   -0.706101  -0.000011
    56  O   -0.724224   0.000124
    57  O   -0.719796   0.000037
    58  O   -0.703385  -0.000083
    59  O   -0.724915   0.000114
    60  O   -0.722403   0.000173
    61  O   -0.720633   0.000175
    62  O   -0.722163  -0.000227
    63  O   -0.706048  -0.000046
    64  O   -0.722088  -0.000244
    65  O   -0.725748  -0.000256
    66  O   -0.888860   0.003976
    67  O   -0.889953   0.006122
    68  O   -0.885480   0.005890
    69  O   -0.894178   0.005272
    70  K    0.846312   0.000173
    71  K    0.846022   0.000201
    72  K    0.841038   0.000212
    73  V    1.187002   0.946491
 Sum of Mulliken charges =  -1.00000   0.00000

 Dipole moment (field-independent basis, Debye):
    X=             29.5146    Y=            -12.8761    Z=            -31.2227  Tot=             44.8527
 Quadrupole moment (field-independent basis, Debye-Ang):
   XX=           -786.3942   YY=           -694.7736   ZZ=           -792.5950
   XY=            126.2806   XZ=            193.0730   YZ=            -87.4035

 Normal termination of Gaussian 16 at Sat Jun  1 10:40:42 2024.
