 Gaussian 16, Revision C.01,
 Gaussian 16:  ES64L-G16RevC.01  3-Jul-2019

 ----------------------------------------------------------------------
 # def2svp wb97xd scrf=(smd,solvent=acetonitrile) g09default scf=(xqc,m
 axcycle=64) force guess=read nosymm
 ----------------------------------------------------------------------

 ----------
 Title Card
 ----------
 Symbolic Z-matrix:
 Charge = -1 Multiplicity = 1

                          Input orientation:
 ---------------------------------------------------------------------
 Center     Atomic      Atomic             Coordinates (Angstroms)
 Number     Number       Type             X           Y           Z
 ---------------------------------------------------------------------
      1         17           0       -9.982977    7.925817   10.475346
      2          6           0       -8.308310    4.238538   12.233453
      3          6           0       -9.069344    3.915785   11.094529
      4          6           0      -10.005597    2.871473   11.197869
      5          6           0      -10.187310    2.183904   12.393221
      6          6           0       -9.428407    2.519807   13.514976
      7          6           0       -8.486806    3.547317   13.427591
      8          1           0       -7.572507    5.044746   12.192842
      9          1           0      -10.601782    2.604330   10.320588
     10          1           0      -10.925249    1.380328   12.451041
     11          1           0       -9.561539    1.976188   14.452390
     12          1           0       -7.892100    3.818282   14.303715
     13          6           0       -8.938987    4.627830    9.821925
     14          6           0       -8.120174    5.664583    9.571650
     15          1           0       -9.583855    4.263251    9.014894
     16          1           0       -8.071361    6.112667    8.577938
     17          1           0       -7.397147    6.029434   10.304938
     18          8           0       -1.010036   -1.762114    7.458514
     19          8           0       -8.411544   -1.326295    7.464064
     20          8           0       -7.055498    1.344109   10.488197
     21          8           0       -2.332773   -4.352111   10.561397
     22         74           0       -3.423027    0.741486    6.493645
     23         74           0       -6.012028   -3.829060    6.583283
     24         74           0       -3.632068    0.917776   11.409874
     25         74           0       -5.779737   -3.869071   11.472770
     26         74           0       -2.470365   -2.547523    6.380628
     27         74           0       -6.945193   -0.535955    6.349414
     28         74           0       -6.826913   -0.250575   11.593021
     29         74           0       -2.572799   -2.694763   11.629380
     30          8           0       -3.195514    1.942388    5.329134
     31          8           0       -6.146389   -5.081518    5.442935
     32          8           0       -2.713436    1.772122   12.556365
     33          8           0       -6.689734   -4.686303   12.652239
     34          8           0       -2.696110   -0.868004    5.584848
     35          8           0       -6.717649   -2.270828    5.627263
     36          8           0       -5.322895    0.565649   12.369398
     37          8           0       -4.066312   -3.511542   12.412917
     38          8           0        0.295695   -0.001308    9.271457
     39          8           0       -9.718475   -3.017017    9.327957
     40          8           0       -6.389467    3.417490    8.634496
     41          8           0       -2.966244   -6.451842    8.750303
     42          8           0       -1.809005    0.782900    7.482251
     43          8           0       -7.613092   -3.877669    7.559496
     44          8           0       -4.533864    2.219742   10.427026
     45          8           0       -4.865095   -5.214060   10.524293
     46          8           0       -1.635767   -3.473079    5.225151
     47          8           0       -7.830650    0.264795    5.155719
     48          8           0       -8.039322   -0.168381   12.777762
     49          8           0       -1.338395   -2.812236   12.791364
     50         74           0       -1.265747   -0.516679    8.842846
     51         74           0       -8.159320   -2.509732    8.881226
     52         74           0       -5.928161    1.851232    9.045177
     53         74           0       -3.469454   -4.882781    9.167368
     54          8           0       -4.238213   -3.091842    6.070730
     55          8           0       -5.176191   -0.030512    6.010773
     56          8           0       -6.187041   -2.000333   11.923557
     57          8           0       -3.187143   -0.950678   11.933321
     58          8           0       -4.388495    1.591779    7.848335
     59          8           0       -5.006967   -4.675055    7.926846
     60          8           0       -2.341984    0.601679   10.081545
     61          8           0       -7.067175   -3.611399   10.140420
     62          8           0       -2.580770   -3.871505    7.859509
     63          8           0       -6.842349    0.786598    7.803697
     64          8           0       -7.844742   -1.174101   10.160231
     65          8           0       -1.574847   -1.834679   10.151929
     66          8           0       -3.384938   -1.130138    8.014850
     67          8           0       -6.033806   -1.950200    8.042339
     68          8           0       -5.137581   -0.197672    9.951475
     69          8           0       -4.251026   -2.823146    9.979659
     70         19           0       -3.232280   -6.123347    5.662851
     71         19           0       -0.146092    0.041903   12.352500
     72         19           0       -9.273057   -2.927720   12.414656
     73         23           0       -4.704245   -1.521561    8.994575
 ---------------------------------------------------------------------

 SCF Done:  E(RwB97XD) =  -7327.70032855     A.U. after   10 cycles

 Alpha  occ. eigenvalues -- -197.29117-130.00121-130.00093-130.00014-101.47592
 Alpha  occ. eigenvalues --  -22.62268 -19.33483 -19.33470 -19.33469 -19.33448
 Alpha  occ. eigenvalues --  -19.30692 -19.30669 -19.30667 -19.30656 -19.30655
 Alpha  occ. eigenvalues --  -19.30643 -19.30617 -19.30590 -19.30495 -19.30308
 Alpha  occ. eigenvalues --  -19.30294 -19.30037 -19.29324 -19.29318 -19.29289
 Alpha  occ. eigenvalues --  -19.29285 -19.29276 -19.29271 -19.29260 -19.29210
 Alpha  occ. eigenvalues --  -19.29181 -19.29156 -19.29149 -19.29135 -19.29113
 Alpha  occ. eigenvalues --  -19.29105 -19.29093 -19.29083 -19.29072 -19.29064
 Alpha  occ. eigenvalues --  -19.29037 -19.28993 -19.28964 -19.28946 -19.28925
 Alpha  occ. eigenvalues --  -19.28712 -19.11221 -19.11213 -19.11204 -13.37523
 Alpha  occ. eigenvalues --  -13.37495 -13.37404 -10.70452 -10.70445 -10.70445
 Alpha  occ. eigenvalues --  -10.70424 -10.70417 -10.70417 -10.70335 -10.70328
 Alpha  occ. eigenvalues --  -10.70326 -10.29780 -10.29304 -10.29246 -10.29043
 Alpha  occ. eigenvalues --  -10.28949 -10.28935 -10.28063 -10.27485  -9.38050
 Alpha  occ. eigenvalues --   -7.12872  -7.12832  -7.12830  -3.23282  -3.23264
 Alpha  occ. eigenvalues --   -3.23263  -3.23254  -3.23247  -3.23239  -3.23181
 Alpha  occ. eigenvalues --   -3.23179  -3.23135  -3.22904  -3.22896  -3.22633
 Alpha  occ. eigenvalues --   -2.91581  -1.93983  -1.93952  -1.93939  -1.87687
 Alpha  occ. eigenvalues --   -1.87626  -1.87602  -1.87540  -1.87458  -1.87441
 Alpha  occ. eigenvalues --   -1.87433  -1.87399  -1.87348  -1.87213  -1.87184
 Alpha  occ. eigenvalues --   -1.86975  -1.86591  -1.86472  -1.86465  -1.86439
 Alpha  occ. eigenvalues --   -1.86416  -1.86372  -1.86302  -1.86283  -1.86264
 Alpha  occ. eigenvalues --   -1.86248  -1.86220  -1.86187  -1.86114  -1.86086
 Alpha  occ. eigenvalues --   -1.86081  -1.86051  -1.86011  -1.85955  -1.85936
 Alpha  occ. eigenvalues --   -1.85875  -1.85838  -1.85746  -1.85610  -1.85533
 Alpha  occ. eigenvalues --   -1.51209  -1.51183  -1.51092  -1.12917  -1.11146
 Alpha  occ. eigenvalues --   -1.11048  -1.11044  -1.08887  -1.08483  -1.08428
 Alpha  occ. eigenvalues --   -1.08258  -1.07484  -1.07426  -1.07399  -1.06855
 Alpha  occ. eigenvalues --   -1.06832  -1.06789  -1.06258  -1.06215  -1.05297
 Alpha  occ. eigenvalues --   -1.05290  -1.04931  -1.04922  -1.04887  -1.04179
 Alpha  occ. eigenvalues --   -1.04174  -1.04140  -1.03997  -1.03983  -1.03971
 Alpha  occ. eigenvalues --   -1.03914  -1.03858  -1.03842  -1.03727  -1.03681
 Alpha  occ. eigenvalues --   -1.03592  -1.03528  -1.03254  -1.03226  -1.03097
 Alpha  occ. eigenvalues --   -1.03082  -1.03017  -1.02873  -0.94357  -0.86675
 Alpha  occ. eigenvalues --   -0.86650  -0.86566  -0.86500  -0.86487  -0.86481
 Alpha  occ. eigenvalues --   -0.86458  -0.86454  -0.86373  -0.86357  -0.82793
 Alpha  occ. eigenvalues --   -0.79754  -0.70756  -0.69752  -0.67986  -0.64534
 Alpha  occ. eigenvalues --   -0.63905  -0.63845  -0.63822  -0.63189  -0.63164
 Alpha  occ. eigenvalues --   -0.63054  -0.63004  -0.62578  -0.62507  -0.61846
 Alpha  occ. eigenvalues --   -0.61530  -0.61513  -0.61418  -0.61183  -0.61170
 Alpha  occ. eigenvalues --   -0.61122  -0.60356  -0.59398  -0.59373  -0.59371
 Alpha  occ. eigenvalues --   -0.59313  -0.59293  -0.58658  -0.57944  -0.57909
 Alpha  occ. eigenvalues --   -0.57843  -0.56976  -0.56943  -0.56902  -0.56229
 Alpha  occ. eigenvalues --   -0.56188  -0.56049  -0.55668  -0.54822  -0.54770
 Alpha  occ. eigenvalues --   -0.54726  -0.54549  -0.54192  -0.54079  -0.54031
 Alpha  occ. eigenvalues --   -0.53984  -0.53896  -0.53235  -0.53187  -0.53056
 Alpha  occ. eigenvalues --   -0.52982  -0.52864  -0.52691  -0.52655  -0.52611
 Alpha  occ. eigenvalues --   -0.52563  -0.52481  -0.52423  -0.52412  -0.51546
 Alpha  occ. eigenvalues --   -0.51521  -0.51332  -0.51293  -0.51273  -0.51213
 Alpha  occ. eigenvalues --   -0.51142  -0.51099  -0.50991  -0.50761  -0.50580
 Alpha  occ. eigenvalues --   -0.50565  -0.50544  -0.49888  -0.49873  -0.49256
 Alpha  occ. eigenvalues --   -0.49237  -0.49219  -0.49179  -0.49128  -0.49044
 Alpha  occ. eigenvalues --   -0.48856  -0.48037  -0.47989  -0.47873  -0.47639
 Alpha  occ. eigenvalues --   -0.47331  -0.47253  -0.47195  -0.46972  -0.46918
 Alpha  occ. eigenvalues --   -0.46827  -0.46574  -0.46543  -0.46412  -0.46149
 Alpha  occ. eigenvalues --   -0.46090  -0.46033  -0.45579  -0.45056  -0.44879
 Alpha  occ. eigenvalues --   -0.44844  -0.44136  -0.44107  -0.43963  -0.43522
 Alpha  occ. eigenvalues --   -0.43276  -0.43217  -0.43090  -0.43073  -0.43028
 Alpha  occ. eigenvalues --   -0.42707  -0.42687  -0.42644  -0.42566  -0.42554
 Alpha  occ. eigenvalues --   -0.42479  -0.42438  -0.42418  -0.42268  -0.42259
 Alpha  occ. eigenvalues --   -0.42221  -0.42003  -0.41879  -0.41818  -0.41807
 Alpha  occ. eigenvalues --   -0.41193  -0.41180  -0.41134  -0.41034  -0.40534
 Alpha  occ. eigenvalues --   -0.40518  -0.40496  -0.40358  -0.39410  -0.39380
 Alpha  occ. eigenvalues --   -0.36812  -0.32519  -0.28797  -0.24512  -0.24477
 Alpha  occ. eigenvalues --   -0.23091
 Alpha virt. eigenvalues --   -0.09192  -0.08988  -0.08329  -0.08277  -0.06900
 Alpha virt. eigenvalues --   -0.06844  -0.06756  -0.04225  -0.03968  -0.03929
 Alpha virt. eigenvalues --   -0.03636  -0.03462  -0.03380  -0.03163  -0.03030

 Mulliken charges:
               1
     1  Cl  -0.929439
     2  C   -0.080019
     3  C    0.040356
     4  C   -0.076996
     5  C   -0.033474
     6  C   -0.031471
     7  C   -0.050593
     8  H    0.027931
     9  H    0.029452
    10  H    0.040217
    11  H    0.036652
    12  H    0.039255
    13  C   -0.087479
    14  C    0.019950
    15  H    0.018183
    16  H    0.038579
    17  H    0.037347
    18  O   -0.663064
    19  O   -0.659808
    20  O   -0.655236
    21  O   -0.661898
    22  W    1.733157
    23  W    1.669649
    24  W    1.680000
    25  W    1.690058
    26  W    1.674077
    27  W    1.725434
    28  W    1.620768
    29  W    1.682938
    30  O   -0.321500
    31  O   -0.366671
    32  O   -0.366267
    33  O   -0.364239
    34  O   -0.663799
    35  O   -0.670056
    36  O   -0.660595
    37  O   -0.662372
    38  O   -0.365929
    39  O   -0.366126
    40  O   -0.292575
    41  O   -0.365987
    42  O   -0.669680
    43  O   -0.662012
    44  O   -0.658211
    45  O   -0.665310
    46  O   -0.365999
    47  O   -0.321167
    48  O   -0.354748
    49  O   -0.365020
    50  W    1.670920
    51  W    1.674118
    52  W    1.674985
    53  W    1.682572
    54  O   -0.722413
    55  O   -0.705243
    56  O   -0.725328
    57  O   -0.720747
    58  O   -0.704759
    59  O   -0.725028
    60  O   -0.723586
    61  O   -0.719558
    62  O   -0.722987
    63  O   -0.706712
    64  O   -0.721586
    65  O   -0.725363
    66  O   -0.799840
    67  O   -0.799679
    68  O   -0.797322
    69  O   -0.808549
    70  K    0.864832
    71  K    0.864313
    72  K    0.860650
    73  V    1.190051
 Sum of Mulliken charges =  -1.00000

 Dipole moment (field-independent basis, Debye):
    X=             51.9780    Y=            -50.6090    Z=            -38.5059  Tot=             82.1322
 Quadrupole moment (field-independent basis, Debye-Ang):
   XX=          -1075.0179   YY=           -869.0601   ZZ=           -910.4832
   XY=            453.3204   XZ=            465.5696   YZ=           -469.9040

 Normal termination of Gaussian 16 at Sat Jun  1 23:26:10 2024.
