 Gaussian 16, Revision C.01,
 Gaussian 16:  ES64L-G16RevC.01  3-Jul-2019

 ----------------------------------------------------------------------
 # def2svp wb97xd scrf=(smd,solvent=acetonitrile) g09default scf=(xqc,m
 axcycle=64) force guess=read nosymm
 ----------------------------------------------------------------------

 ----------
 Title Card
 ----------
 Symbolic Z-matrix:
 Charge = -1 Multiplicity = 1

                          Input orientation:
 ---------------------------------------------------------------------
 Center     Atomic      Atomic             Coordinates (Angstroms)
 Number     Number       Type             X           Y           Z
 ---------------------------------------------------------------------
      1         17           0       -9.982977    7.925817   10.475346
      2          6           0       -8.308310    4.238538   12.233453
      3          6           0       -9.069344    3.915785   11.094529
      4          6           0      -10.005597    2.871473   11.197869
      5          6           0      -10.187310    2.183904   12.393221
      6          6           0       -9.428407    2.519807   13.514976
      7          6           0       -8.486806    3.547317   13.427591
      8          1           0       -7.572507    5.044746   12.192842
      9          1           0      -10.601782    2.604330   10.320588
     10          1           0      -10.925249    1.380328   12.451041
     11          1           0       -9.561539    1.976188   14.452390
     12          1           0       -7.892100    3.818282   14.303715
     13          6           0       -8.938987    4.627830    9.821925
     14          6           0       -8.120174    5.664583    9.571650
     15          1           0       -9.583855    4.263251    9.014894
     16          1           0       -8.071361    6.112667    8.577938
     17          1           0       -7.397147    6.029434   10.304938
     18          8           0       -1.010036   -1.762114    7.458514
     19          8           0       -8.411544   -1.326295    7.464064
     20          8           0       -7.055498    1.344109   10.488197
     21          8           0       -2.332773   -4.352111   10.561397
     22         74           0       -3.423027    0.741486    6.493645
     23         74           0       -6.012028   -3.829060    6.583283
     24         74           0       -3.632068    0.917776   11.409874
     25         74           0       -5.779737   -3.869071   11.472770
     26         74           0       -2.470365   -2.547523    6.380628
     27         74           0       -6.945193   -0.535955    6.349414
     28         74           0       -6.826913   -0.250575   11.593021
     29         74           0       -2.572799   -2.694763   11.629380
     30          8           0       -3.195514    1.942388    5.329134
     31          8           0       -6.146389   -5.081518    5.442935
     32          8           0       -2.713436    1.772122   12.556365
     33          8           0       -6.689734   -4.686303   12.652239
     34          8           0       -2.696110   -0.868004    5.584848
     35          8           0       -6.717649   -2.270828    5.627263
     36          8           0       -5.322895    0.565649   12.369398
     37          8           0       -4.066312   -3.511542   12.412917
     38          8           0        0.295695   -0.001308    9.271457
     39          8           0       -9.718475   -3.017017    9.327957
     40          8           0       -6.389467    3.417490    8.634496
     41          8           0       -2.966244   -6.451842    8.750303
     42          8           0       -1.809005    0.782900    7.482251
     43          8           0       -7.613092   -3.877669    7.559496
     44          8           0       -4.533864    2.219742   10.427026
     45          8           0       -4.865095   -5.214060   10.524293
     46          8           0       -1.635767   -3.473079    5.225151
     47          8           0       -7.830650    0.264795    5.155719
     48          8           0       -8.039322   -0.168381   12.777762
     49          8           0       -1.338395   -2.812236   12.791364
     50         74           0       -1.265747   -0.516679    8.842846
     51         74           0       -8.159320   -2.509732    8.881226
     52         74           0       -5.928161    1.851232    9.045177
     53         74           0       -3.469454   -4.882781    9.167368
     54          8           0       -4.238213   -3.091842    6.070730
     55          8           0       -5.176191   -0.030512    6.010773
     56          8           0       -6.187041   -2.000333   11.923557
     57          8           0       -3.187143   -0.950678   11.933321
     58          8           0       -4.388495    1.591779    7.848335
     59          8           0       -5.006967   -4.675055    7.926846
     60          8           0       -2.341984    0.601679   10.081545
     61          8           0       -7.067175   -3.611399   10.140420
     62          8           0       -2.580770   -3.871505    7.859509
     63          8           0       -6.842349    0.786598    7.803697
     64          8           0       -7.844742   -1.174101   10.160231
     65          8           0       -1.574847   -1.834679   10.151929
     66          8           0       -3.384938   -1.130138    8.014850
     67          8           0       -6.033806   -1.950200    8.042339
     68          8           0       -5.137581   -0.197672    9.951475
     69          8           0       -4.251026   -2.823146    9.979659
     70         19           0       -3.232280   -6.123347    5.662851
     71         19           0       -0.146092    0.041903   12.352500
     72         19           0       -9.273057   -2.927720   12.414656
     73         23           0       -4.704245   -1.521561    8.994575
 ---------------------------------------------------------------------

 SCF Done:  E(UwB97XD) =  -7327.70003276     A.U. after   35 cycles

 Alpha  occ. eigenvalues --  -19.24551 -18.93816 -18.92724 -18.92694 -13.36522
 Alpha  occ. eigenvalues --  -13.36510 -13.36474 -10.69449 -10.69445 -10.69445
 Alpha  occ. eigenvalues --  -10.69437 -10.69433 -10.69433 -10.69402 -10.69398
 Alpha  occ. eigenvalues --  -10.69395 -10.32833 -10.32211 -10.31762 -10.30864
 Alpha  occ. eigenvalues --  -10.30835 -10.30811 -10.30452 -10.30371  -9.52475
 Alpha  occ. eigenvalues --   -7.27356  -7.27018  -7.27011  -3.21059  -3.21037
 Alpha  occ. eigenvalues --   -3.21029  -3.21026  -3.21005  -3.20987  -3.20979
 Alpha  occ. eigenvalues --   -3.20975  -3.20965  -3.20829  -3.20813  -3.20788
 Alpha  occ. eigenvalues --   -2.78597  -1.85301  -1.85269  -1.85243  -1.85218
 Alpha  occ. eigenvalues --   -1.85098  -1.85053  -1.85032  -1.85013  -1.85002
 Alpha  occ. eigenvalues --   -1.84997  -1.84970  -1.84910  -1.84359  -1.84247
 Alpha  occ. eigenvalues --   -1.84232  -1.84228  -1.84189  -1.84179  -1.84110
 Alpha  occ. eigenvalues --   -1.84096  -1.84071  -1.84063  -1.84040  -1.84028
 Alpha  occ. eigenvalues --   -1.83911  -1.83884  -1.83871  -1.83865  -1.83829
 Alpha  occ. eigenvalues --   -1.83793  -1.83774  -1.83771  -1.83752  -1.83653
 Alpha  occ. eigenvalues --   -1.83651  -1.83636  -1.81778  -1.81435  -1.81422
 Alpha  occ. eigenvalues --   -1.50224  -1.50211  -1.50176  -1.08568  -1.06940
 Alpha  occ. eigenvalues --   -1.06907  -1.06878  -1.05975  -1.05965  -1.05932
 Alpha  occ. eigenvalues --   -1.04543  -1.04534  -1.04525  -1.03936  -1.03915
 Alpha  occ. eigenvalues --   -1.03626  -1.03320  -1.03274  -1.03262  -1.03026
 Alpha  occ. eigenvalues --   -1.03004  -1.02214  -1.02200  -1.02170  -1.02058
 Alpha  occ. eigenvalues --   -1.02013  -1.01985  -1.01913  -1.01888  -1.01777
 Alpha  occ. eigenvalues --   -1.01735  -1.01722  -1.01605  -1.01556  -1.01540
 Alpha  occ. eigenvalues --   -1.01280  -1.00785  -1.00756  -1.00706  -1.00693
 Alpha  occ. eigenvalues --   -0.99932  -0.99863  -0.99797  -0.96068  -0.89205
 Alpha  occ. eigenvalues --   -0.85667  -0.85652  -0.85624  -0.85512  -0.85508
 Alpha  occ. eigenvalues --   -0.85502  -0.85495  -0.85470  -0.85452  -0.84160
 Alpha  occ. eigenvalues --   -0.82278  -0.80914  -0.71829  -0.69499  -0.64971
 Alpha  occ. eigenvalues --   -0.62273  -0.61661  -0.61616  -0.61576  -0.60533
 Alpha  occ. eigenvalues --   -0.58937  -0.58931  -0.58920  -0.58851  -0.58785
 Alpha  occ. eigenvalues --   -0.58718  -0.58711  -0.58662  -0.58502  -0.57306
 Alpha  occ. eigenvalues --   -0.57271  -0.57241  -0.56958  -0.56697  -0.56444
 Alpha  occ. eigenvalues --   -0.56404  -0.56364  -0.55960  -0.55811  -0.55320
 Alpha  occ. eigenvalues --   -0.55317  -0.55281  -0.54323  -0.54161  -0.54133
 Alpha  occ. eigenvalues --   -0.53955  -0.53632  -0.53590  -0.53564  -0.52693
 Alpha  occ. eigenvalues --   -0.52600  -0.52579  -0.52491  -0.52445  -0.51463
 Alpha  occ. eigenvalues --   -0.51453  -0.51431  -0.51359  -0.51305  -0.50678
 Alpha  occ. eigenvalues --   -0.50557  -0.50504  -0.50452  -0.50349  -0.50260
 Alpha  occ. eigenvalues --   -0.50227  -0.50059  -0.50017  -0.49999  -0.49749
 Alpha  occ. eigenvalues --   -0.49663  -0.49641  -0.49466  -0.49436  -0.49277
 Alpha  occ. eigenvalues --   -0.49232  -0.49174  -0.49087  -0.49043  -0.48957
 Alpha  occ. eigenvalues --   -0.48710  -0.48550  -0.48529  -0.48471  -0.47683
 Alpha  occ. eigenvalues --   -0.47667  -0.47110  -0.46453  -0.46018  -0.46002
 Alpha  occ. eigenvalues --   -0.45846  -0.45738  -0.45675  -0.45586  -0.45185
 Alpha  occ. eigenvalues --   -0.45124  -0.45116  -0.44824  -0.44618  -0.44472
 Alpha  occ. eigenvalues --   -0.44448  -0.44432  -0.44241  -0.44229  -0.44210
 Alpha  occ. eigenvalues --   -0.43371  -0.43005  -0.42532  -0.42486  -0.42423
 Alpha  occ. eigenvalues --   -0.42280  -0.42143  -0.42127  -0.42043  -0.41614
 Alpha  occ. eigenvalues --   -0.41588  -0.41542  -0.41015  -0.40976  -0.40783
 Alpha  occ. eigenvalues --   -0.40742  -0.40727  -0.40395  -0.40387  -0.40339
 Alpha  occ. eigenvalues --   -0.40203  -0.40168  -0.40155  -0.40129  -0.39853
 Alpha  occ. eigenvalues --   -0.39325  -0.39246  -0.39219  -0.39130  -0.39000
 Alpha  occ. eigenvalues --   -0.38915  -0.38884  -0.38810  -0.38696  -0.38663
 Alpha  occ. eigenvalues --   -0.38300  -0.38275  -0.38239  -0.37823  -0.37177
 Alpha  occ. eigenvalues --   -0.37172  -0.34655  -0.34634  -0.33549  -0.29959
 Alpha  occ. eigenvalues --   -0.25546
 Alpha virt. eigenvalues --   -0.11936  -0.06223  -0.06179  -0.04771  -0.04697
 Alpha virt. eigenvalues --   -0.04594  -0.01484  -0.01391  -0.01335  -0.01069
 Alpha virt. eigenvalues --   -0.00899  -0.00867  -0.00813  -0.00133  -0.00052

  Beta  occ. eigenvalues -- -197.10537-129.99114-129.99102-129.99077-101.62476
  Beta  occ. eigenvalues --  -22.42981 -19.28504 -19.28485 -19.28456 -19.28381
  Beta  occ. eigenvalues --  -19.28374 -19.28360 -19.28345 -19.28342 -19.28328
  Beta  occ. eigenvalues --  -19.28239 -19.28219 -19.28135 -19.26954 -19.26909
  Beta  occ. eigenvalues --  -19.26908 -19.26900 -19.26877 -19.26876 -19.26849
  Beta  occ. eigenvalues --  -19.26837 -19.26831 -19.26827 -19.26809 -19.26805
  Beta  occ. eigenvalues --  -19.26794 -19.26790 -19.26785 -19.26783 -19.26783
  Beta  occ. eigenvalues --  -19.26776 -19.26746 -19.26718 -19.26712 -19.26702
  Beta  occ. eigenvalues --  -19.26654 -19.26621 -19.24624 -19.24555 -19.24554
  Beta  occ. eigenvalues --  -19.24526 -18.93472 -18.91277 -18.91219 -13.36522
  Beta  occ. eigenvalues --  -13.36510 -13.36474 -10.69449 -10.69445 -10.69445
  Beta  occ. eigenvalues --  -10.69437 -10.69433 -10.69433 -10.69402 -10.69398
  Beta  occ. eigenvalues --  -10.69395 -10.33071 -10.32382 -10.31719 -10.30951
  Beta  occ. eigenvalues --  -10.30940 -10.30896 -10.30403 -10.30320  -9.52931
  Beta  occ. eigenvalues --   -7.28789  -7.27329  -7.27322  -3.21059  -3.21030
  Beta  occ. eigenvalues --   -3.21029  -3.21025  -3.20999  -3.20981  -3.20973
  Beta  occ. eigenvalues --   -3.20969  -3.20959  -3.20829  -3.20809  -3.20783
  Beta  occ. eigenvalues --   -2.74540  -1.85296  -1.85263  -1.85239  -1.85209
  Beta  occ. eigenvalues --   -1.85093  -1.85048  -1.85025  -1.85006  -1.84995
  Beta  occ. eigenvalues --   -1.84988  -1.84966  -1.84902  -1.84357  -1.84245
  Beta  occ. eigenvalues --   -1.84229  -1.84225  -1.84185  -1.84176  -1.84107
  Beta  occ. eigenvalues --   -1.84094  -1.84068  -1.84060  -1.84037  -1.84024
  Beta  occ. eigenvalues --   -1.83909  -1.83881  -1.83868  -1.83862  -1.83826
  Beta  occ. eigenvalues --   -1.83790  -1.83771  -1.83768  -1.83749  -1.83651
  Beta  occ. eigenvalues --   -1.83648  -1.83633  -1.80444  -1.75746  -1.75627
  Beta  occ. eigenvalues --   -1.50224  -1.50211  -1.50176  -1.08552  -1.06922
  Beta  occ. eigenvalues --   -1.06886  -1.06852  -1.05973  -1.05963  -1.05931
  Beta  occ. eigenvalues --   -1.04544  -1.04533  -1.04527  -1.03935  -1.03917
  Beta  occ. eigenvalues --   -1.03560  -1.03289  -1.03240  -1.03230  -1.03025
  Beta  occ. eigenvalues --   -1.02996  -1.02196  -1.02175  -1.02154  -1.02049
  Beta  occ. eigenvalues --   -1.02008  -1.01971  -1.01909  -1.01878  -1.01773
  Beta  occ. eigenvalues --   -1.01732  -1.01718  -1.01605  -1.01553  -1.01525
  Beta  occ. eigenvalues --   -1.01280  -1.00760  -1.00743  -1.00705  -1.00690
  Beta  occ. eigenvalues --   -0.99796  -0.99713  -0.99676  -0.96268  -0.89861
  Beta  occ. eigenvalues --   -0.85667  -0.85652  -0.85624  -0.85512  -0.85508
  Beta  occ. eigenvalues --   -0.85502  -0.85495  -0.85470  -0.85452  -0.84445
  Beta  occ. eigenvalues --   -0.84235  -0.82664  -0.72086  -0.69609  -0.65205
  Beta  occ. eigenvalues --   -0.62273  -0.61661  -0.61616  -0.61576  -0.60716
  Beta  occ. eigenvalues --   -0.58936  -0.58928  -0.58918  -0.58771  -0.58725
  Beta  occ. eigenvalues --   -0.58701  -0.58691  -0.58634  -0.58502  -0.57282
  Beta  occ. eigenvalues --   -0.57119  -0.57074  -0.56947  -0.56839  -0.56445
  Beta  occ. eigenvalues --   -0.56374  -0.56329  -0.55768  -0.55554  -0.55299
  Beta  occ. eigenvalues --   -0.55299  -0.55281  -0.54489  -0.54157  -0.54124
  Beta  occ. eigenvalues --   -0.53944  -0.53606  -0.53567  -0.53522  -0.52741
  Beta  occ. eigenvalues --   -0.52624  -0.52566  -0.52476  -0.52436  -0.51455
  Beta  occ. eigenvalues --   -0.51427  -0.51409  -0.51302  -0.51246  -0.50845
  Beta  occ. eigenvalues --   -0.50470  -0.50441  -0.50394  -0.50305  -0.50221
  Beta  occ. eigenvalues --   -0.50167  -0.50027  -0.50017  -0.49970  -0.49696
  Beta  occ. eigenvalues --   -0.49639  -0.49620  -0.49458  -0.49426  -0.49279
  Beta  occ. eigenvalues --   -0.49208  -0.49176  -0.49059  -0.49027  -0.48934
  Beta  occ. eigenvalues --   -0.48703  -0.48555  -0.48530  -0.48463  -0.47768
  Beta  occ. eigenvalues --   -0.47642  -0.47540  -0.45894  -0.45874  -0.45788
  Beta  occ. eigenvalues --   -0.45775  -0.45657  -0.45544  -0.45185  -0.45146
  Beta  occ. eigenvalues --   -0.45120  -0.45022  -0.44824  -0.44618  -0.44454
  Beta  occ. eigenvalues --   -0.44428  -0.44389  -0.44240  -0.44193  -0.44178
  Beta  occ. eigenvalues --   -0.43364  -0.43094  -0.42484  -0.42455  -0.42383
  Beta  occ. eigenvalues --   -0.42231  -0.42111  -0.42098  -0.42089  -0.41592
  Beta  occ. eigenvalues --   -0.41582  -0.41529  -0.41316  -0.41018  -0.40928
  Beta  occ. eigenvalues --   -0.40733  -0.40700  -0.40642  -0.40378  -0.40374
  Beta  occ. eigenvalues --   -0.40311  -0.40158  -0.40144  -0.40116  -0.39795
  Beta  occ. eigenvalues --   -0.39613  -0.39324  -0.39151  -0.39089  -0.39069
  Beta  occ. eigenvalues --   -0.38880  -0.38855  -0.38802  -0.38694  -0.38648
  Beta  occ. eigenvalues --   -0.38610  -0.38298  -0.38267  -0.38234  -0.37551
  Beta  occ. eigenvalues --   -0.37179  -0.37167  -0.35605  -0.35586  -0.33788
  Beta  occ. eigenvalues --   -0.30722
  Beta virt. eigenvalues --   -0.06221  -0.06179  -0.04770  -0.04696  -0.04593
  Beta virt. eigenvalues --   -0.01481  -0.01387  -0.01330  -0.01064  -0.00893
  Beta virt. eigenvalues --   -0.00864  -0.00810  -0.00132  -0.00041  -0.00012

 Mulliken charges and spin densities:
               1          2
     1  Cl  -0.352998  -0.617657
     2  C   -0.037862  -0.081661
     3  C    0.014606   0.047243
     4  C   -0.035804  -0.078325
     5  C   -0.031419   0.050406
     6  C    0.006658  -0.098686
     7  C   -0.049163   0.049711
     8  H    0.046892   0.003470
     9  H    0.049221   0.003365
    10  H    0.053896  -0.001783
    11  H    0.055096   0.004336
    12  H    0.052819  -0.001732
    13  C    0.000500  -0.208471
    14  C   -0.024596  -0.083850
    15  H    0.072969   0.008969
    16  H    0.094700   0.004580
    17  H    0.093159   0.003861
    18  O   -0.671715  -0.000565
    19  O   -0.668607  -0.000494
    20  O   -0.666189  -0.001900
    21  O   -0.670826  -0.000525
    22  W    1.716465   0.000353
    23  W    1.655211   0.000517
    24  W    1.667618   0.000191
    25  W    1.675994   0.000188
    26  W    1.660129   0.002798
    27  W    1.707613   0.002530
    28  W    1.612459   0.003347
    29  W    1.668552   0.002945
    30  O   -0.351064  -0.000530
    31  O   -0.394934  -0.000563
    32  O   -0.394409  -0.000599
    33  O   -0.392738  -0.000552
    34  O   -0.672100  -0.000305
    35  O   -0.677268  -0.000057
    36  O   -0.669381  -0.000148
    37  O   -0.671209  -0.000231
    38  O   -0.395671   0.002098
    39  O   -0.396081   0.002116
    40  O   -0.339615  -0.001062
    41  O   -0.395963   0.002107
    42  O   -0.677123   0.000075
    43  O   -0.670496   0.000179
    44  O   -0.666722   0.000298
    45  O   -0.673533   0.000097
    46  O   -0.395891   0.002327
    47  O   -0.352578   0.002212
    48  O   -0.387460   0.001788
    49  O   -0.394983   0.002382
    50  W    1.656613   0.002857
    51  W    1.659845   0.002743
    52  W    1.670755   0.003857
    53  W    1.667913   0.002690
    54  O   -0.720305   0.000103
    55  O   -0.703616   0.000007
    56  O   -0.721853   0.000172
    57  O   -0.718837   0.000060
    58  O   -0.702076  -0.000016
    59  O   -0.722253   0.000158
    60  O   -0.721032   0.000207
    61  O   -0.717206   0.000205
    62  O   -0.721350  -0.000175
    63  O   -0.704908  -0.000011
    64  O   -0.720702  -0.000192
    65  O   -0.723279  -0.000205
    66  O   -0.881949   0.005276
    67  O   -0.882455   0.007417
    68  O   -0.880258   0.007149
    69  O   -0.887715   0.006664
    70  K    0.851236   0.000199
    71  K    0.850884   0.000221
    72  K    0.846804   0.000247
    73  V    1.199587   0.935573
 Sum of Mulliken charges =  -1.00000  -0.00000

 Dipole moment (field-independent basis, Debye):
    X=             29.4007    Y=            -13.7357    Z=            -30.7665  Tot=             44.7174
 Quadrupole moment (field-independent basis, Debye-Ang):
   XX=           -781.6237   YY=           -700.4860   ZZ=           -783.3637
   XY=            132.2694   XZ=            188.3332   YZ=            -93.6449

 Normal termination of Gaussian 16 at Sat Jun  1 23:15:53 2024.
