 Gaussian 16, Revision C.01,
 Gaussian 16:  ES64L-G16RevC.01  3-Jul-2019

 ----------------------------------------------------------------------
 # def2svp wb97xd scrf=(smd,solvent=acetonitrile) g09default scf=(xqc,m
 axcycle=64) force guess=read nosymm
 ----------------------------------------------------------------------

 ----------
 Title Card
 ----------
 Symbolic Z-matrix:
 Charge = -1 Multiplicity = 1

                          Input orientation:
 ---------------------------------------------------------------------
 Center     Atomic      Atomic             Coordinates (Angstroms)
 Number     Number       Type             X           Y           Z
 ---------------------------------------------------------------------
      1         17           0       -9.982285    7.936740   10.478359
      2          6           0       -8.308925    4.238470   12.233048
      3          6           0       -9.070753    3.915983   11.095010
      4          6           0      -10.006323    2.870926   11.197837
      5          6           0      -10.187290    2.183266   12.393673
      6          6           0       -9.428306    2.519707   13.514765
      7          6           0       -8.486676    3.547105   13.427427
      8          1           0       -7.572123    5.043718   12.191523
      9          1           0      -10.601608    2.602692   10.320551
     10          1           0      -10.925354    1.379986   12.451996
     11          1           0       -9.562413    1.977307   14.452929
     12          1           0       -7.892051    3.818232   14.303312
     13          6           0       -8.940809    4.628066    9.822494
     14          6           0       -8.122546    5.665616    9.571889
     15          1           0       -9.584364    4.262126    9.015181
     16          1           0       -8.074335    6.112975    8.577873
     17          1           0       -7.401291    6.033494   10.305243
     18          8           0       -1.009604   -1.761860    7.457981
     19          8           0       -8.411714   -1.326887    7.463474
     20          8           0       -7.054472    1.344563   10.488319
     21          8           0       -2.332845   -4.352900   10.561615
     22         74           0       -3.422481    0.740591    6.492844
     23         74           0       -6.011864   -3.829476    6.582673
     24         74           0       -3.631605    0.917583   11.410413
     25         74           0       -5.779778   -3.868791   11.472824
     26         74           0       -2.470142   -2.548058    6.381100
     27         74           0       -6.944805   -0.536281    6.349820
     28         74           0       -6.826585   -0.250402   11.592122
     29         74           0       -2.572860   -2.694980   11.628927
     30          8           0       -3.194128    1.940734    5.327826
     31          8           0       -6.147187   -5.080793    5.441546
     32          8           0       -2.714396    1.771901   12.557931
     33          8           0       -6.688381   -4.686572   12.653177
     34          8           0       -2.695249   -0.868464    5.584958
     35          8           0       -6.717849   -2.271032    5.627524
     36          8           0       -5.322761    0.566005   12.368808
     37          8           0       -4.065975   -3.512214   12.412393
     38          8           0        0.295792   -0.000655    9.270788
     39          8           0       -9.718600   -3.017830    9.326950
     40          8           0       -6.388411    3.417611    8.636391
     41          8           0       -2.967008   -6.452468    8.751418
     42          8           0       -1.808380    0.781953    7.481427
     43          8           0       -7.613211   -3.877319    7.558832
     44          8           0       -4.533615    2.219658   10.427614
     45          8           0       -4.864590   -5.213741   10.524636
     46          8           0       -1.634469   -3.473456    5.226087
     47          8           0       -7.831666    0.263999    5.156928
     48          8           0       -8.039520   -0.166672   12.776335
     49          8           0       -1.338043   -2.814440   12.790537
     50         74           0       -1.265836   -0.516843    8.842464
     51         74           0       -8.159060   -2.509945    8.880588
     52         74           0       -5.926846    1.850933    9.045369
     53         74           0       -3.469552   -4.882993    9.167779
     54          8           0       -4.238254   -3.091655    6.070514
     55          8           0       -5.175510   -0.031209    6.010157
     56          8           0       -6.186332   -2.000151   11.923337
     57          8           0       -3.187191   -0.950938   11.933740
     58          8           0       -4.387415    1.590557    7.848776
     59          8           0       -5.007217   -4.675045    7.926749
     60          8           0       -2.342000    0.601522   10.081487
     61          8           0       -7.066987   -3.611586   10.140151
     62          8           0       -2.580630   -3.871573    7.859784
     63          8           0       -6.841648    0.786098    7.804010
     64          8           0       -7.844361   -1.173962   10.159538
     65          8           0       -1.575081   -1.835212   10.151388
     66          8           0       -3.384346   -1.130350    8.014186
     67          8           0       -6.033964   -1.950220    8.041480
     68          8           0       -5.137124   -0.197327    9.951668
     69          8           0       -4.250863   -2.823561    9.979829
     70         19           0       -3.231775   -6.124653    5.661890
     71         19           0       -0.144530    0.042741   12.353359
     72         19           0       -9.274374   -2.927029   12.416056
     73         23           0       -4.704030   -1.521720    8.994249
 ---------------------------------------------------------------------

 SCF Done:  E(RwB97XD) =  -7327.70035758     A.U. after   10 cycles

 Alpha  occ. eigenvalues -- -197.29161-130.00132-130.00104-130.00024-101.47590
 Alpha  occ. eigenvalues --  -22.62307 -19.33499 -19.33485 -19.33483 -19.33459
 Alpha  occ. eigenvalues --  -19.30697 -19.30668 -19.30664 -19.30653 -19.30650
 Alpha  occ. eigenvalues --  -19.30642 -19.30618 -19.30581 -19.30493 -19.30308
 Alpha  occ. eigenvalues --  -19.30292 -19.30034 -19.29326 -19.29320 -19.29290
 Alpha  occ. eigenvalues --  -19.29285 -19.29278 -19.29271 -19.29261 -19.29211
 Alpha  occ. eigenvalues --  -19.29180 -19.29158 -19.29149 -19.29133 -19.29113
 Alpha  occ. eigenvalues --  -19.29103 -19.29095 -19.29083 -19.29071 -19.29065
 Alpha  occ. eigenvalues --  -19.29034 -19.28988 -19.28961 -19.28946 -19.28923
 Alpha  occ. eigenvalues --  -19.28714 -19.11261 -19.11253 -19.11244 -13.37534
 Alpha  occ. eigenvalues --  -13.37506 -13.37415 -10.70463 -10.70456 -10.70456
 Alpha  occ. eigenvalues --  -10.70436 -10.70428 -10.70428 -10.70346 -10.70339
 Alpha  occ. eigenvalues --  -10.70336 -10.29782 -10.29307 -10.29248 -10.29045
 Alpha  occ. eigenvalues --  -10.28953 -10.28944 -10.28074 -10.27509  -9.38048
 Alpha  occ. eigenvalues --   -7.12870  -7.12831  -7.12829  -3.23281  -3.23264
 Alpha  occ. eigenvalues --   -3.23262  -3.23255  -3.23247  -3.23238  -3.23180
 Alpha  occ. eigenvalues --   -3.23177  -3.23133  -3.22903  -3.22896  -3.22632
 Alpha  occ. eigenvalues --   -2.91607  -1.94004  -1.93974  -1.93961  -1.87685
 Alpha  occ. eigenvalues --   -1.87624  -1.87602  -1.87540  -1.87456  -1.87438
 Alpha  occ. eigenvalues --   -1.87431  -1.87395  -1.87347  -1.87213  -1.87184
 Alpha  occ. eigenvalues --   -1.86974  -1.86591  -1.86471  -1.86465  -1.86438
 Alpha  occ. eigenvalues --   -1.86416  -1.86371  -1.86302  -1.86284  -1.86263
 Alpha  occ. eigenvalues --   -1.86248  -1.86218  -1.86187  -1.86113  -1.86086
 Alpha  occ. eigenvalues --   -1.86081  -1.86050  -1.86010  -1.85954  -1.85935
 Alpha  occ. eigenvalues --   -1.85874  -1.85837  -1.85745  -1.85609  -1.85533
 Alpha  occ. eigenvalues --   -1.51220  -1.51193  -1.51102  -1.12927  -1.11158
 Alpha  occ. eigenvalues --   -1.11060  -1.11055  -1.08890  -1.08484  -1.08428
 Alpha  occ. eigenvalues --   -1.08257  -1.07488  -1.07431  -1.07403  -1.06855
 Alpha  occ. eigenvalues --   -1.06832  -1.06791  -1.06259  -1.06217  -1.05297
 Alpha  occ. eigenvalues --   -1.05289  -1.04933  -1.04923  -1.04890  -1.04178
 Alpha  occ. eigenvalues --   -1.04173  -1.04139  -1.03996  -1.03980  -1.03967
 Alpha  occ. eigenvalues --   -1.03913  -1.03855  -1.03839  -1.03725  -1.03677
 Alpha  occ. eigenvalues --   -1.03589  -1.03528  -1.03255  -1.03224  -1.03096
 Alpha  occ. eigenvalues --   -1.03081  -1.03016  -1.02873  -0.94365  -0.86685
 Alpha  occ. eigenvalues --   -0.86660  -0.86575  -0.86510  -0.86497  -0.86491
 Alpha  occ. eigenvalues --   -0.86468  -0.86463  -0.86383  -0.86366  -0.82795
 Alpha  occ. eigenvalues --   -0.79760  -0.70753  -0.69757  -0.67999  -0.64535
 Alpha  occ. eigenvalues --   -0.63905  -0.63845  -0.63824  -0.63197  -0.63169
 Alpha  occ. eigenvalues --   -0.63062  -0.63012  -0.62582  -0.62512  -0.61856
 Alpha  occ. eigenvalues --   -0.61535  -0.61517  -0.61422  -0.61184  -0.61171
 Alpha  occ. eigenvalues --   -0.61124  -0.60358  -0.59398  -0.59375  -0.59372
 Alpha  occ. eigenvalues --   -0.59316  -0.59294  -0.58664  -0.57946  -0.57912
 Alpha  occ. eigenvalues --   -0.57846  -0.56983  -0.56949  -0.56910  -0.56229
 Alpha  occ. eigenvalues --   -0.56188  -0.56047  -0.55665  -0.54819  -0.54768
 Alpha  occ. eigenvalues --   -0.54723  -0.54553  -0.54192  -0.54082  -0.54031
 Alpha  occ. eigenvalues --   -0.53985  -0.53894  -0.53237  -0.53184  -0.53057
 Alpha  occ. eigenvalues --   -0.52981  -0.52864  -0.52692  -0.52652  -0.52609
 Alpha  occ. eigenvalues --   -0.52561  -0.52486  -0.52428  -0.52411  -0.51543
 Alpha  occ. eigenvalues --   -0.51518  -0.51333  -0.51291  -0.51270  -0.51210
 Alpha  occ. eigenvalues --   -0.51139  -0.51097  -0.51000  -0.50756  -0.50575
 Alpha  occ. eigenvalues --   -0.50563  -0.50542  -0.49886  -0.49874  -0.49256
 Alpha  occ. eigenvalues --   -0.49238  -0.49219  -0.49177  -0.49126  -0.49038
 Alpha  occ. eigenvalues --   -0.48853  -0.48038  -0.47987  -0.47871  -0.47643
 Alpha  occ. eigenvalues --   -0.47328  -0.47256  -0.47198  -0.46973  -0.46921
 Alpha  occ. eigenvalues --   -0.46826  -0.46566  -0.46537  -0.46412  -0.46154
 Alpha  occ. eigenvalues --   -0.46092  -0.46035  -0.45582  -0.45056  -0.44879
 Alpha  occ. eigenvalues --   -0.44843  -0.44136  -0.44109  -0.43966  -0.43532
 Alpha  occ. eigenvalues --   -0.43278  -0.43218  -0.43090  -0.43073  -0.43028
 Alpha  occ. eigenvalues --   -0.42705  -0.42683  -0.42640  -0.42565  -0.42554
 Alpha  occ. eigenvalues --   -0.42481  -0.42435  -0.42419  -0.42267  -0.42258
 Alpha  occ. eigenvalues --   -0.42220  -0.42001  -0.41878  -0.41817  -0.41806
 Alpha  occ. eigenvalues --   -0.41194  -0.41180  -0.41135  -0.41036  -0.40533
 Alpha  occ. eigenvalues --   -0.40519  -0.40496  -0.40375  -0.39411  -0.39382
 Alpha  occ. eigenvalues --   -0.36820  -0.32518  -0.28796  -0.24510  -0.24475
 Alpha  occ. eigenvalues --   -0.23112
 Alpha virt. eigenvalues --   -0.09225  -0.09021  -0.08330  -0.08278  -0.06903
 Alpha virt. eigenvalues --   -0.06843  -0.06756  -0.04253  -0.03987  -0.03950
 Alpha virt. eigenvalues --   -0.03641  -0.03469  -0.03387  -0.03164  -0.03034

 Mulliken charges:
               1
     1  Cl  -0.930059
     2  C   -0.079854
     3  C    0.040477
     4  C   -0.076843
     5  C   -0.033338
     6  C   -0.031275
     7  C   -0.050492
     8  H    0.028042
     9  H    0.029491
    10  H    0.040191
    11  H    0.036690
    12  H    0.039224
    13  C   -0.087862
    14  C    0.019213
    15  H    0.018484
    16  H    0.038812
    17  H    0.037357
    18  O   -0.662989
    19  O   -0.659659
    20  O   -0.655152
    21  O   -0.661752
    22  W    1.733265
    23  W    1.669522
    24  W    1.679815
    25  W    1.689939
    26  W    1.674186
    27  W    1.725575
    28  W    1.620885
    29  W    1.682891
    30  O   -0.321444
    31  O   -0.366383
    32  O   -0.366130
    33  O   -0.364213
    34  O   -0.663784
    35  O   -0.670027
    36  O   -0.660603
    37  O   -0.662323
    38  O   -0.366149
    39  O   -0.366375
    40  O   -0.292740
    41  O   -0.365916
    42  O   -0.669640
    43  O   -0.662050
    44  O   -0.658242
    45  O   -0.665311
    46  O   -0.366046
    47  O   -0.321150
    48  O   -0.354764
    49  O   -0.365024
    50  W    1.671014
    51  W    1.674130
    52  W    1.675439
    53  W    1.682576
    54  O   -0.722435
    55  O   -0.705398
    56  O   -0.725384
    57  O   -0.720744
    58  O   -0.705046
    59  O   -0.725059
    60  O   -0.723637
    61  O   -0.719547
    62  O   -0.723125
    63  O   -0.706933
    64  O   -0.721708
    65  O   -0.725425
    66  O   -0.800015
    67  O   -0.799782
    68  O   -0.797482
    69  O   -0.808614
    70  K    0.865159
    71  K    0.864667
    72  K    0.861021
    73  V    1.189856
 Sum of Mulliken charges =  -1.00000

 Dipole moment (field-independent basis, Debye):
    X=             51.9864    Y=            -50.6884    Z=            -38.5108  Tot=             82.1887
 Quadrupole moment (field-independent basis, Debye-Ang):
   XX=          -1075.0512   YY=           -869.9506   ZZ=           -910.4632
   XY=            454.0656   XZ=            465.6849   YZ=           -470.7168

 Normal termination of Gaussian 16 at Sun Jun  2 00:01:39 2024.
