 Gaussian 16, Revision C.01,
 Gaussian 16:  ES64L-G16RevC.01  3-Jul-2019

 ----------------------------------------------------------------------
 # def2svp wb97xd scrf=(smd,solvent=acetonitrile) g09default scf=(xqc,m
 axcycle=64) force guess=read nosymm
 ----------------------------------------------------------------------

 ----------
 Title Card
 ----------
 Symbolic Z-matrix:
 Charge = -1 Multiplicity = 1

                          Input orientation:
 ---------------------------------------------------------------------
 Center     Atomic      Atomic             Coordinates (Angstroms)
 Number     Number       Type             X           Y           Z
 ---------------------------------------------------------------------
      1         17           0       -9.982285    7.936740   10.478359
      2          6           0       -8.308925    4.238470   12.233048
      3          6           0       -9.070753    3.915983   11.095010
      4          6           0      -10.006323    2.870926   11.197837
      5          6           0      -10.187290    2.183266   12.393673
      6          6           0       -9.428306    2.519707   13.514765
      7          6           0       -8.486676    3.547105   13.427427
      8          1           0       -7.572123    5.043718   12.191523
      9          1           0      -10.601608    2.602692   10.320551
     10          1           0      -10.925354    1.379986   12.451996
     11          1           0       -9.562413    1.977307   14.452929
     12          1           0       -7.892051    3.818232   14.303312
     13          6           0       -8.940809    4.628066    9.822494
     14          6           0       -8.122546    5.665616    9.571889
     15          1           0       -9.584364    4.262126    9.015181
     16          1           0       -8.074335    6.112975    8.577873
     17          1           0       -7.401291    6.033494   10.305243
     18          8           0       -1.009604   -1.761860    7.457981
     19          8           0       -8.411714   -1.326887    7.463474
     20          8           0       -7.054472    1.344563   10.488319
     21          8           0       -2.332845   -4.352900   10.561615
     22         74           0       -3.422481    0.740591    6.492844
     23         74           0       -6.011864   -3.829476    6.582673
     24         74           0       -3.631605    0.917583   11.410413
     25         74           0       -5.779778   -3.868791   11.472824
     26         74           0       -2.470142   -2.548058    6.381100
     27         74           0       -6.944805   -0.536281    6.349820
     28         74           0       -6.826585   -0.250402   11.592122
     29         74           0       -2.572860   -2.694980   11.628927
     30          8           0       -3.194128    1.940734    5.327826
     31          8           0       -6.147187   -5.080793    5.441546
     32          8           0       -2.714396    1.771901   12.557931
     33          8           0       -6.688381   -4.686572   12.653177
     34          8           0       -2.695249   -0.868464    5.584958
     35          8           0       -6.717849   -2.271032    5.627524
     36          8           0       -5.322761    0.566005   12.368808
     37          8           0       -4.065975   -3.512214   12.412393
     38          8           0        0.295792   -0.000655    9.270788
     39          8           0       -9.718600   -3.017830    9.326950
     40          8           0       -6.388411    3.417611    8.636391
     41          8           0       -2.967008   -6.452468    8.751418
     42          8           0       -1.808380    0.781953    7.481427
     43          8           0       -7.613211   -3.877319    7.558832
     44          8           0       -4.533615    2.219658   10.427614
     45          8           0       -4.864590   -5.213741   10.524636
     46          8           0       -1.634469   -3.473456    5.226087
     47          8           0       -7.831666    0.263999    5.156928
     48          8           0       -8.039520   -0.166672   12.776335
     49          8           0       -1.338043   -2.814440   12.790537
     50         74           0       -1.265836   -0.516843    8.842464
     51         74           0       -8.159060   -2.509945    8.880588
     52         74           0       -5.926846    1.850933    9.045369
     53         74           0       -3.469552   -4.882993    9.167779
     54          8           0       -4.238254   -3.091655    6.070514
     55          8           0       -5.175510   -0.031209    6.010157
     56          8           0       -6.186332   -2.000151   11.923337
     57          8           0       -3.187191   -0.950938   11.933740
     58          8           0       -4.387415    1.590557    7.848776
     59          8           0       -5.007217   -4.675045    7.926749
     60          8           0       -2.342000    0.601522   10.081487
     61          8           0       -7.066987   -3.611586   10.140151
     62          8           0       -2.580630   -3.871573    7.859784
     63          8           0       -6.841648    0.786098    7.804010
     64          8           0       -7.844361   -1.173962   10.159538
     65          8           0       -1.575081   -1.835212   10.151388
     66          8           0       -3.384346   -1.130350    8.014186
     67          8           0       -6.033964   -1.950220    8.041480
     68          8           0       -5.137124   -0.197327    9.951668
     69          8           0       -4.250863   -2.823561    9.979829
     70         19           0       -3.231775   -6.124653    5.661890
     71         19           0       -0.144530    0.042741   12.353359
     72         19           0       -9.274374   -2.927029   12.416056
     73         23           0       -4.704030   -1.521720    8.994249
 ---------------------------------------------------------------------

 SCF Done:  E(UwB97XD) =  -7327.70009584     A.U. after   36 cycles

 Alpha  occ. eigenvalues --  -19.24565 -18.93865 -18.92772 -18.92746 -13.36535
 Alpha  occ. eigenvalues --  -13.36523 -13.36485 -10.69461 -10.69457 -10.69457
 Alpha  occ. eigenvalues --  -10.69449 -10.69445 -10.69445 -10.69413 -10.69409
 Alpha  occ. eigenvalues --  -10.69407 -10.32826 -10.32199 -10.31757 -10.30860
 Alpha  occ. eigenvalues --  -10.30830 -10.30812 -10.30450 -10.30368  -9.52506
 Alpha  occ. eigenvalues --   -7.27388  -7.27048  -7.27042  -3.21057  -3.21034
 Alpha  occ. eigenvalues --   -3.21029  -3.21024  -3.21004  -3.20986  -3.20978
 Alpha  occ. eigenvalues --   -3.20976  -3.20963  -3.20828  -3.20808  -3.20785
 Alpha  occ. eigenvalues --   -2.78631  -1.85299  -1.85266  -1.85243  -1.85215
 Alpha  occ. eigenvalues --   -1.85096  -1.85050  -1.85028  -1.85011  -1.84999
 Alpha  occ. eigenvalues --   -1.84994  -1.84968  -1.84908  -1.84358  -1.84246
 Alpha  occ. eigenvalues --   -1.84231  -1.84227  -1.84188  -1.84178  -1.84109
 Alpha  occ. eigenvalues --   -1.84094  -1.84070  -1.84062  -1.84039  -1.84027
 Alpha  occ. eigenvalues --   -1.83910  -1.83883  -1.83869  -1.83864  -1.83827
 Alpha  occ. eigenvalues --   -1.83792  -1.83773  -1.83769  -1.83750  -1.83650
 Alpha  occ. eigenvalues --   -1.83648  -1.83633  -1.81807  -1.81463  -1.81453
 Alpha  occ. eigenvalues --   -1.50236  -1.50223  -1.50186  -1.08572  -1.06944
 Alpha  occ. eigenvalues --   -1.06910  -1.06881  -1.05974  -1.05966  -1.05932
 Alpha  occ. eigenvalues --   -1.04544  -1.04533  -1.04527  -1.03937  -1.03917
 Alpha  occ. eigenvalues --   -1.03631  -1.03321  -1.03275  -1.03263  -1.03026
 Alpha  occ. eigenvalues --   -1.03003  -1.02218  -1.02202  -1.02171  -1.02054
 Alpha  occ. eigenvalues --   -1.02010  -1.01980  -1.01909  -1.01883  -1.01777
 Alpha  occ. eigenvalues --   -1.01733  -1.01720  -1.01603  -1.01555  -1.01537
 Alpha  occ. eigenvalues --   -1.01281  -1.00785  -1.00755  -1.00705  -1.00693
 Alpha  occ. eigenvalues --   -0.99939  -0.99869  -0.99804  -0.96068  -0.89198
 Alpha  occ. eigenvalues --   -0.85677  -0.85663  -0.85634  -0.85524  -0.85519
 Alpha  occ. eigenvalues --   -0.85513  -0.85507  -0.85481  -0.85462  -0.84156
 Alpha  occ. eigenvalues --   -0.82273  -0.80935  -0.71825  -0.69506  -0.64969
 Alpha  occ. eigenvalues --   -0.62274  -0.61661  -0.61616  -0.61577  -0.60530
 Alpha  occ. eigenvalues --   -0.58937  -0.58932  -0.58919  -0.58852  -0.58785
 Alpha  occ. eigenvalues --   -0.58721  -0.58714  -0.58664  -0.58503  -0.57311
 Alpha  occ. eigenvalues --   -0.57277  -0.57247  -0.56962  -0.56690  -0.56443
 Alpha  occ. eigenvalues --   -0.56403  -0.56363  -0.55961  -0.55813  -0.55323
 Alpha  occ. eigenvalues --   -0.55320  -0.55285  -0.54322  -0.54159  -0.54131
 Alpha  occ. eigenvalues --   -0.53953  -0.53635  -0.53593  -0.53567  -0.52693
 Alpha  occ. eigenvalues --   -0.52600  -0.52574  -0.52488  -0.52442  -0.51465
 Alpha  occ. eigenvalues --   -0.51454  -0.51431  -0.51359  -0.51307  -0.50676
 Alpha  occ. eigenvalues --   -0.50553  -0.50504  -0.50450  -0.50349  -0.50257
 Alpha  occ. eigenvalues --   -0.50221  -0.50058  -0.50015  -0.49999  -0.49748
 Alpha  occ. eigenvalues --   -0.49657  -0.49637  -0.49464  -0.49434  -0.49274
 Alpha  occ. eigenvalues --   -0.49231  -0.49170  -0.49086  -0.49041  -0.48956
 Alpha  occ. eigenvalues --   -0.48705  -0.48546  -0.48525  -0.48464  -0.47682
 Alpha  occ. eigenvalues --   -0.47664  -0.47110  -0.46449  -0.46016  -0.45999
 Alpha  occ. eigenvalues --   -0.45846  -0.45735  -0.45676  -0.45582  -0.45183
 Alpha  occ. eigenvalues --   -0.45128  -0.45119  -0.44823  -0.44616  -0.44469
 Alpha  occ. eigenvalues --   -0.44443  -0.44432  -0.44241  -0.44226  -0.44206
 Alpha  occ. eigenvalues --   -0.43378  -0.42993  -0.42532  -0.42485  -0.42425
 Alpha  occ. eigenvalues --   -0.42281  -0.42144  -0.42128  -0.42054  -0.41614
 Alpha  occ. eigenvalues --   -0.41589  -0.41542  -0.41015  -0.40973  -0.40782
 Alpha  occ. eigenvalues --   -0.40741  -0.40728  -0.40393  -0.40384  -0.40335
 Alpha  occ. eigenvalues --   -0.40205  -0.40168  -0.40153  -0.40128  -0.39850
 Alpha  occ. eigenvalues --   -0.39324  -0.39247  -0.39221  -0.39130  -0.39002
 Alpha  occ. eigenvalues --   -0.38917  -0.38885  -0.38811  -0.38702  -0.38667
 Alpha  occ. eigenvalues --   -0.38300  -0.38274  -0.38239  -0.37819  -0.37178
 Alpha  occ. eigenvalues --   -0.37173  -0.34676  -0.34655  -0.33544  -0.29940
 Alpha  occ. eigenvalues --   -0.25584
 Alpha virt. eigenvalues --   -0.11977  -0.06223  -0.06179  -0.04772  -0.04696
 Alpha virt. eigenvalues --   -0.04594  -0.01487  -0.01393  -0.01334  -0.01068
 Alpha virt. eigenvalues --   -0.00899  -0.00865  -0.00812  -0.00132  -0.00053

  Beta  occ. eigenvalues -- -197.10591-129.99126-129.99114-129.99088-101.62508
  Beta  occ. eigenvalues --  -22.43030 -19.28505 -19.28490 -19.28453 -19.28377
  Beta  occ. eigenvalues --  -19.28368 -19.28354 -19.28342 -19.28336 -19.28326
  Beta  occ. eigenvalues --  -19.28239 -19.28212 -19.28131 -19.26954 -19.26911
  Beta  occ. eigenvalues --  -19.26905 -19.26899 -19.26879 -19.26878 -19.26844
  Beta  occ. eigenvalues --  -19.26836 -19.26830 -19.26826 -19.26810 -19.26802
  Beta  occ. eigenvalues --  -19.26793 -19.26789 -19.26783 -19.26783 -19.26779
  Beta  occ. eigenvalues --  -19.26777 -19.26744 -19.26719 -19.26711 -19.26701
  Beta  occ. eigenvalues --  -19.26652 -19.26618 -19.24640 -19.24571 -19.24565
  Beta  occ. eigenvalues --  -19.24540 -18.93521 -18.91321 -18.91273 -13.36535
  Beta  occ. eigenvalues --  -13.36523 -13.36485 -10.69461 -10.69457 -10.69457
  Beta  occ. eigenvalues --  -10.69449 -10.69445 -10.69445 -10.69413 -10.69409
  Beta  occ. eigenvalues --  -10.69407 -10.33062 -10.32370 -10.31714 -10.30947
  Beta  occ. eigenvalues --  -10.30934 -10.30897 -10.30401 -10.30318  -9.52963
  Beta  occ. eigenvalues --   -7.28824  -7.27360  -7.27354  -3.21057  -3.21028
  Beta  occ. eigenvalues --   -3.21028  -3.21024  -3.20998  -3.20980  -3.20972
  Beta  occ. eigenvalues --   -3.20970  -3.20957  -3.20827  -3.20804  -3.20780
  Beta  occ. eigenvalues --   -2.74573  -1.85294  -1.85260  -1.85239  -1.85207
  Beta  occ. eigenvalues --   -1.85090  -1.85045  -1.85021  -1.85003  -1.84992
  Beta  occ. eigenvalues --   -1.84985  -1.84964  -1.84899  -1.84356  -1.84244
  Beta  occ. eigenvalues --   -1.84228  -1.84224  -1.84185  -1.84175  -1.84106
  Beta  occ. eigenvalues --   -1.84092  -1.84067  -1.84059  -1.84037  -1.84023
  Beta  occ. eigenvalues --   -1.83907  -1.83880  -1.83867  -1.83860  -1.83824
  Beta  occ. eigenvalues --   -1.83789  -1.83770  -1.83766  -1.83747  -1.83648
  Beta  occ. eigenvalues --   -1.83646  -1.83631  -1.80472  -1.75764  -1.75664
  Beta  occ. eigenvalues --   -1.50236  -1.50223  -1.50186  -1.08555  -1.06925
  Beta  occ. eigenvalues --   -1.06889  -1.06856  -1.05973  -1.05964  -1.05931
  Beta  occ. eigenvalues --   -1.04544  -1.04532  -1.04528  -1.03936  -1.03919
  Beta  occ. eigenvalues --   -1.03565  -1.03290  -1.03241  -1.03230  -1.03024
  Beta  occ. eigenvalues --   -1.02995  -1.02200  -1.02177  -1.02156  -1.02046
  Beta  occ. eigenvalues --   -1.02005  -1.01967  -1.01905  -1.01873  -1.01773
  Beta  occ. eigenvalues --   -1.01730  -1.01717  -1.01604  -1.01552  -1.01522
  Beta  occ. eigenvalues --   -1.01281  -1.00760  -1.00743  -1.00704  -1.00689
  Beta  occ. eigenvalues --   -0.99803  -0.99721  -0.99683  -0.96267  -0.89849
  Beta  occ. eigenvalues --   -0.85677  -0.85663  -0.85634  -0.85523  -0.85519
  Beta  occ. eigenvalues --   -0.85513  -0.85507  -0.85481  -0.85462  -0.84468
  Beta  occ. eigenvalues --   -0.84234  -0.82661  -0.72081  -0.69616  -0.65201
  Beta  occ. eigenvalues --   -0.62274  -0.61660  -0.61616  -0.61576  -0.60713
  Beta  occ. eigenvalues --   -0.58936  -0.58929  -0.58917  -0.58771  -0.58729
  Beta  occ. eigenvalues --   -0.58703  -0.58693  -0.58635  -0.58503  -0.57288
  Beta  occ. eigenvalues --   -0.57122  -0.57079  -0.56945  -0.56837  -0.56445
  Beta  occ. eigenvalues --   -0.56373  -0.56329  -0.55770  -0.55556  -0.55303
  Beta  occ. eigenvalues --   -0.55301  -0.55285  -0.54487  -0.54155  -0.54121
  Beta  occ. eigenvalues --   -0.53942  -0.53607  -0.53570  -0.53526  -0.52743
  Beta  occ. eigenvalues --   -0.52622  -0.52562  -0.52472  -0.52434  -0.51457
  Beta  occ. eigenvalues --   -0.51427  -0.51409  -0.51304  -0.51245  -0.50841
  Beta  occ. eigenvalues --   -0.50469  -0.50440  -0.50392  -0.50303  -0.50218
  Beta  occ. eigenvalues --   -0.50163  -0.50027  -0.50015  -0.49970  -0.49694
  Beta  occ. eigenvalues --   -0.49633  -0.49616  -0.49456  -0.49423  -0.49276
  Beta  occ. eigenvalues --   -0.49208  -0.49172  -0.49057  -0.49026  -0.48932
  Beta  occ. eigenvalues --   -0.48697  -0.48551  -0.48527  -0.48456  -0.47767
  Beta  occ. eigenvalues --   -0.47639  -0.47538  -0.45892  -0.45872  -0.45787
  Beta  occ. eigenvalues --   -0.45775  -0.45654  -0.45541  -0.45184  -0.45148
  Beta  occ. eigenvalues --   -0.45123  -0.45021  -0.44823  -0.44616  -0.44452
  Beta  occ. eigenvalues --   -0.44424  -0.44388  -0.44241  -0.44191  -0.44174
  Beta  occ. eigenvalues --   -0.43371  -0.43081  -0.42484  -0.42455  -0.42383
  Beta  occ. eigenvalues --   -0.42231  -0.42121  -0.42100  -0.42090  -0.41592
  Beta  occ. eigenvalues --   -0.41582  -0.41529  -0.41308  -0.41018  -0.40925
  Beta  occ. eigenvalues --   -0.40734  -0.40700  -0.40640  -0.40376  -0.40371
  Beta  occ. eigenvalues --   -0.40307  -0.40158  -0.40141  -0.40116  -0.39793
  Beta  occ. eigenvalues --   -0.39614  -0.39325  -0.39151  -0.39092  -0.39070
  Beta  occ. eigenvalues --   -0.38881  -0.38856  -0.38805  -0.38699  -0.38653
  Beta  occ. eigenvalues --   -0.38616  -0.38298  -0.38267  -0.38235  -0.37580
  Beta  occ. eigenvalues --   -0.37180  -0.37168  -0.35628  -0.35610  -0.33782
  Beta  occ. eigenvalues --   -0.30728
  Beta virt. eigenvalues --   -0.06221  -0.06179  -0.04771  -0.04695  -0.04593
  Beta virt. eigenvalues --   -0.01483  -0.01389  -0.01329  -0.01063  -0.00893
  Beta virt. eigenvalues --   -0.00862  -0.00808  -0.00130  -0.00042  -0.00009

 Mulliken charges and spin densities:
               1          2
     1  Cl  -0.351876  -0.619145
     2  C   -0.037973  -0.081357
     3  C    0.014842   0.046759
     4  C   -0.035837  -0.078106
     5  C   -0.031232   0.050222
     6  C    0.006668  -0.098392
     7  C   -0.049037   0.049561
     8  H    0.046911   0.003459
     9  H    0.049171   0.003355
    10  H    0.053810  -0.001775
    11  H    0.055065   0.004324
    12  H    0.052723  -0.001726
    13  C    0.000335  -0.207303
    14  C   -0.025311  -0.083451
    15  H    0.072878   0.008917
    16  H    0.094597   0.004571
    17  H    0.092945   0.003829
    18  O   -0.671654  -0.000566
    19  O   -0.668469  -0.000495
    20  O   -0.666115  -0.001893
    21  O   -0.670695  -0.000525
    22  W    1.716552   0.000353
    23  W    1.655062   0.000515
    24  W    1.667416   0.000189
    25  W    1.675875   0.000188
    26  W    1.660265   0.002791
    27  W    1.707781   0.002524
    28  W    1.612588   0.003334
    29  W    1.668532   0.002937
    30  O   -0.351012  -0.000530
    31  O   -0.394638  -0.000561
    32  O   -0.394274  -0.000598
    33  O   -0.392724  -0.000552
    34  O   -0.672084  -0.000306
    35  O   -0.677235  -0.000062
    36  O   -0.669388  -0.000150
    37  O   -0.671160  -0.000232
    38  O   -0.395903   0.002092
    39  O   -0.396343   0.002110
    40  O   -0.339654  -0.001052
    41  O   -0.395891   0.002098
    42  O   -0.677090   0.000077
    43  O   -0.670531   0.000179
    44  O   -0.666755   0.000299
    45  O   -0.673527   0.000098
    46  O   -0.395955   0.002330
    47  O   -0.352582   0.002214
    48  O   -0.387500   0.001793
    49  O   -0.395006   0.002384
    50  W    1.656723   0.002843
    51  W    1.659867   0.002729
    52  W    1.671085   0.003839
    53  W    1.667938   0.002671
    54  O   -0.720330   0.000100
    55  O   -0.703793   0.000005
    56  O   -0.721923   0.000169
    57  O   -0.718853   0.000058
    58  O   -0.702341  -0.000016
    59  O   -0.722280   0.000156
    60  O   -0.721085   0.000205
    61  O   -0.717207   0.000203
    62  O   -0.721492  -0.000173
    63  O   -0.705146  -0.000010
    64  O   -0.720826  -0.000191
    65  O   -0.723346  -0.000204
    66  O   -0.882181   0.005240
    67  O   -0.882616   0.007354
    68  O   -0.880476   0.007112
    69  O   -0.887849   0.006624
    70  K    0.851578   0.000197
    71  K    0.851253   0.000219
    72  K    0.847200   0.000244
    73  V    1.199529   0.935901
 Sum of Mulliken charges =  -1.00000   0.00000

 Dipole moment (field-independent basis, Debye):
    X=             29.3940    Y=            -13.7484    Z=            -30.7633  Tot=             44.7147
 Quadrupole moment (field-independent basis, Debye-Ang):
   XX=           -781.4350   YY=           -700.5148   ZZ=           -783.2210
   XY=            132.3148   XZ=            188.2231   YZ=            -93.6896

 Normal termination of Gaussian 16 at Sat Jun  1 23:51:41 2024.
