 Gaussian 16, Revision C.01,
 Gaussian 16:  ES64L-G16RevC.01  3-Jul-2019

 ----------------------------------------------------------------------
 # def2svp wb97xd scrf=(smd,solvent=acetonitrile) g09default scf=(xqc,m
 axcycle=64) force guess=read nosymm
 ----------------------------------------------------------------------

 ----------
 Title Card
 ----------
 Symbolic Z-matrix:
 Charge = -1 Multiplicity = 1

                          Input orientation:
 ---------------------------------------------------------------------
 Center     Atomic      Atomic             Coordinates (Angstroms)
 Number     Number       Type             X           Y           Z
 ---------------------------------------------------------------------
      1         17           0       -9.980699    7.949511   10.481866
      2          6           0       -8.309623    4.238369   12.232841
      3          6           0       -9.072595    3.916013   11.095431
      4          6           0      -10.007098    2.870275   11.198401
      5          6           0      -10.187393    2.182850   12.393799
      6          6           0       -9.428334    2.519705   13.514919
      7          6           0       -8.486671    3.547003   13.427056
      8          1           0       -7.571770    5.042514   12.189852
      9          1           0      -10.601502    2.600774   10.320365
     10          1           0      -10.925404    1.379291   12.453088
     11          1           0       -9.563441    1.978619   14.453584
     12          1           0       -7.891735    3.818061   14.302851
     13          6           0       -8.942762    4.628379    9.822965
     14          6           0       -8.125625    5.666855    9.572186
     15          1           0       -9.585359    4.261129    9.015599
     16          1           0       -8.078350    6.113589    8.577722
     17          1           0       -7.406923    6.038953   10.305839
     18          8           0       -1.008966   -1.761799    7.457509
     19          8           0       -8.411914   -1.327480    7.462868
     20          8           0       -7.053411    1.345040   10.488335
     21          8           0       -2.332831   -4.353824   10.561725
     22         74           0       -3.421961    0.739067    6.492169
     23         74           0       -6.011596   -3.829412    6.582229
     24         74           0       -3.631359    0.917082   11.410835
     25         74           0       -5.779644   -3.868380   11.472845
     26         74           0       -2.469738   -2.548746    6.381806
     27         74           0       -6.944318   -0.536735    6.350636
     28         74           0       -6.826219   -0.250142   11.590894
     29         74           0       -2.572740   -2.695375   11.628327
     30          8           0       -3.192500    1.938776    5.326352
     31          8           0       -6.147997   -5.080051    5.439995
     32          8           0       -2.715413    1.771466   12.559592
     33          8           0       -6.686725   -4.686576   12.653922
     34          8           0       -2.694148   -0.869133    5.585003
     35          8           0       -6.718048   -2.271241    5.627678
     36          8           0       -5.322628    0.566333   12.368218
     37          8           0       -4.065555   -3.512957   12.411857
     38          8           0        0.295626   -0.000060    9.270094
     39          8           0       -9.718397   -3.018659    9.325830
     40          8           0       -6.387277    3.417695    8.638764
     41          8           0       -2.967983   -6.453128    8.752714
     42          8           0       -1.807598    0.780966    7.480526
     43          8           0       -7.613336   -3.877107    7.558048
     44          8           0       -4.533152    2.219641   10.428328
     45          8           0       -4.864160   -5.213532   10.524947
     46          8           0       -1.633137   -3.474071    5.227322
     47          8           0       -7.832752    0.263138    5.158243
     48          8           0       -8.039616   -0.164844   12.774529
     49          8           0       -1.337813   -2.816910   12.789351
     50         74           0       -1.265821   -0.516899    8.842020
     51         74           0       -8.158869   -2.510430    8.879879
     52         74           0       -5.925097    1.850481    9.045708
     53         74           0       -3.469841   -4.883238    9.168263
     54          8           0       -4.238195   -3.091598    6.070212
     55          8           0       -5.174763   -0.032049    6.009469
     56          8           0       -6.185509   -1.999915   11.923059
     57          8           0       -3.187098   -0.951280   11.934205
     58          8           0       -4.386170    1.589250    7.849153
     59          8           0       -5.007416   -4.675061    7.926612
     60          8           0       -2.341916    0.601252   10.081424
     61          8           0       -7.066823   -3.611714   10.139839
     62          8           0       -2.580392   -3.871719    7.860114
     63          8           0       -6.840845    0.785553    7.804388
     64          8           0       -7.843930   -1.173768   10.158660
     65          8           0       -1.575300   -1.835946   10.150691
     66          8           0       -3.383624   -1.130670    8.013384
     67          8           0       -6.034059   -1.950281    8.040582
     68          8           0       -5.136406   -0.197052    9.951865
     69          8           0       -4.250661   -2.824016    9.980018
     70         19           0       -3.231153   -6.126084    5.660811
     71         19           0       -0.142704    0.043697   12.354252
     72         19           0       -9.275809   -2.926023   12.417599
     73         23           0       -4.703789   -1.521831    8.993816
 ---------------------------------------------------------------------

 SCF Done:  E(RwB97XD) =  -7327.70037035     A.U. after   11 cycles

 Alpha  occ. eigenvalues -- -197.29219-130.00141-130.00116-130.00037-101.47591
 Alpha  occ. eigenvalues --  -22.62360 -19.33521 -19.33511 -19.33510 -19.33485
 Alpha  occ. eigenvalues --  -19.30692 -19.30668 -19.30664 -19.30654 -19.30650
 Alpha  occ. eigenvalues --  -19.30641 -19.30615 -19.30583 -19.30494 -19.30302
 Alpha  occ. eigenvalues --  -19.30286 -19.30035 -19.29327 -19.29320 -19.29291
 Alpha  occ. eigenvalues --  -19.29285 -19.29279 -19.29271 -19.29262 -19.29208
 Alpha  occ. eigenvalues --  -19.29182 -19.29159 -19.29149 -19.29133 -19.29114
 Alpha  occ. eigenvalues --  -19.29101 -19.29097 -19.29084 -19.29073 -19.29067
 Alpha  occ. eigenvalues --  -19.29036 -19.28987 -19.28962 -19.28948 -19.28923
 Alpha  occ. eigenvalues --  -19.28722 -19.11314 -19.11306 -19.11297 -13.37543
 Alpha  occ. eigenvalues --  -13.37519 -13.37428 -10.70472 -10.70466 -10.70465
 Alpha  occ. eigenvalues --  -10.70448 -10.70441 -10.70440 -10.70359 -10.70352
 Alpha  occ. eigenvalues --  -10.70350 -10.29787 -10.29308 -10.29250 -10.29050
 Alpha  occ. eigenvalues --  -10.28957 -10.28950 -10.28086 -10.27536  -9.38048
 Alpha  occ. eigenvalues --   -7.12870  -7.12831  -7.12829  -3.23280  -3.23264
 Alpha  occ. eigenvalues --   -3.23260  -3.23256  -3.23246  -3.23237  -3.23181
 Alpha  occ. eigenvalues --   -3.23177  -3.23134  -3.22904  -3.22897  -3.22636
 Alpha  occ. eigenvalues --   -2.91646  -1.94039  -1.94009  -1.93996  -1.87686
 Alpha  occ. eigenvalues --   -1.87625  -1.87600  -1.87540  -1.87456  -1.87439
 Alpha  occ. eigenvalues --   -1.87432  -1.87395  -1.87347  -1.87210  -1.87181
 Alpha  occ. eigenvalues --   -1.86976  -1.86590  -1.86471  -1.86465  -1.86438
 Alpha  occ. eigenvalues --   -1.86417  -1.86372  -1.86302  -1.86285  -1.86264
 Alpha  occ. eigenvalues --   -1.86248  -1.86219  -1.86187  -1.86112  -1.86087
 Alpha  occ. eigenvalues --   -1.86080  -1.86050  -1.86009  -1.85955  -1.85936
 Alpha  occ. eigenvalues --   -1.85875  -1.85839  -1.85747  -1.85611  -1.85538
 Alpha  occ. eigenvalues --   -1.51228  -1.51205  -1.51115  -1.12946  -1.11177
 Alpha  occ. eigenvalues --   -1.11083  -1.11077  -1.08898  -1.08486  -1.08431
 Alpha  occ. eigenvalues --   -1.08261  -1.07496  -1.07441  -1.07413  -1.06859
 Alpha  occ. eigenvalues --   -1.06835  -1.06797  -1.06264  -1.06223  -1.05297
 Alpha  occ. eigenvalues --   -1.05291  -1.04937  -1.04928  -1.04896  -1.04178
 Alpha  occ. eigenvalues --   -1.04173  -1.04138  -1.03994  -1.03979  -1.03967
 Alpha  occ. eigenvalues --   -1.03912  -1.03855  -1.03839  -1.03723  -1.03677
 Alpha  occ. eigenvalues --   -1.03589  -1.03531  -1.03248  -1.03218  -1.03096
 Alpha  occ. eigenvalues --   -1.03081  -1.03017  -1.02876  -0.94377  -0.86693
 Alpha  occ. eigenvalues --   -0.86670  -0.86586  -0.86520  -0.86505  -0.86499
 Alpha  occ. eigenvalues --   -0.86479  -0.86474  -0.86395  -0.86378  -0.82807
 Alpha  occ. eigenvalues --   -0.79769  -0.70752  -0.69768  -0.68003  -0.64539
 Alpha  occ. eigenvalues --   -0.63907  -0.63848  -0.63829  -0.63212  -0.63185
 Alpha  occ. eigenvalues --   -0.63078  -0.63022  -0.62594  -0.62525  -0.61875
 Alpha  occ. eigenvalues --   -0.61544  -0.61525  -0.61432  -0.61186  -0.61172
 Alpha  occ. eigenvalues --   -0.61127  -0.60363  -0.59401  -0.59382  -0.59376
 Alpha  occ. eigenvalues --   -0.59323  -0.59300  -0.58672  -0.57951  -0.57917
 Alpha  occ. eigenvalues --   -0.57851  -0.56996  -0.56961  -0.56924  -0.56233
 Alpha  occ. eigenvalues --   -0.56191  -0.56048  -0.55663  -0.54818  -0.54766
 Alpha  occ. eigenvalues --   -0.54723  -0.54562  -0.54196  -0.54085  -0.54034
 Alpha  occ. eigenvalues --   -0.53988  -0.53897  -0.53237  -0.53183  -0.53058
 Alpha  occ. eigenvalues --   -0.52980  -0.52866  -0.52693  -0.52649  -0.52606
 Alpha  occ. eigenvalues --   -0.52558  -0.52488  -0.52431  -0.52414  -0.51544
 Alpha  occ. eigenvalues --   -0.51519  -0.51337  -0.51294  -0.51271  -0.51211
 Alpha  occ. eigenvalues --   -0.51140  -0.51097  -0.50999  -0.50750  -0.50568
 Alpha  occ. eigenvalues --   -0.50558  -0.50534  -0.49885  -0.49876  -0.49259
 Alpha  occ. eigenvalues --   -0.49241  -0.49221  -0.49172  -0.49126  -0.49035
 Alpha  occ. eigenvalues --   -0.48856  -0.48039  -0.47990  -0.47874  -0.47655
 Alpha  occ. eigenvalues --   -0.47328  -0.47261  -0.47203  -0.46976  -0.46927
 Alpha  occ. eigenvalues --   -0.46825  -0.46560  -0.46532  -0.46415  -0.46162
 Alpha  occ. eigenvalues --   -0.46099  -0.46042  -0.45589  -0.45057  -0.44879
 Alpha  occ. eigenvalues --   -0.44845  -0.44141  -0.44114  -0.43972  -0.43542
 Alpha  occ. eigenvalues --   -0.43279  -0.43220  -0.43092  -0.43073  -0.43030
 Alpha  occ. eigenvalues --   -0.42704  -0.42681  -0.42640  -0.42567  -0.42557
 Alpha  occ. eigenvalues --   -0.42482  -0.42437  -0.42422  -0.42267  -0.42258
 Alpha  occ. eigenvalues --   -0.42220  -0.42001  -0.41878  -0.41818  -0.41806
 Alpha  occ. eigenvalues --   -0.41197  -0.41187  -0.41140  -0.41039  -0.40535
 Alpha  occ. eigenvalues --   -0.40522  -0.40499  -0.40374  -0.39414  -0.39387
 Alpha  occ. eigenvalues --   -0.36829  -0.32529  -0.28794  -0.24508  -0.24475
 Alpha  occ. eigenvalues --   -0.23139
 Alpha virt. eigenvalues --   -0.09270  -0.09067  -0.08334  -0.08281  -0.06907
 Alpha virt. eigenvalues --   -0.06844  -0.06758  -0.04290  -0.04016  -0.03980
 Alpha virt. eigenvalues --   -0.03649  -0.03479  -0.03396  -0.03168  -0.03040

 Mulliken charges:
               1
     1  Cl  -0.930696
     2  C   -0.079426
     3  C    0.040200
     4  C   -0.076678
     5  C   -0.033365
     6  C   -0.031138
     7  C   -0.050476
     8  H    0.028130
     9  H    0.029743
    10  H    0.040306
    11  H    0.036669
    12  H    0.039280
    13  C   -0.088166
    14  C    0.018406
    15  H    0.018784
    16  H    0.039117
    17  H    0.037353
    18  O   -0.662961
    19  O   -0.659551
    20  O   -0.655029
    21  O   -0.661619
    22  W    1.733463
    23  W    1.669528
    24  W    1.679747
    25  W    1.689873
    26  W    1.674345
    27  W    1.725791
    28  W    1.621011
    29  W    1.682827
    30  O   -0.321730
    31  O   -0.366515
    32  O   -0.366197
    33  O   -0.363991
    34  O   -0.663779
    35  O   -0.669952
    36  O   -0.660607
    37  O   -0.662328
    38  O   -0.366077
    39  O   -0.366231
    40  O   -0.292939
    41  O   -0.365814
    42  O   -0.669586
    43  O   -0.662068
    44  O   -0.658231
    45  O   -0.665324
    46  O   -0.366051
    47  O   -0.321353
    48  O   -0.354714
    49  O   -0.364745
    50  W    1.671099
    51  W    1.674157
    52  W    1.676044
    53  W    1.682602
    54  O   -0.722514
    55  O   -0.705557
    56  O   -0.725483
    57  O   -0.720812
    58  O   -0.705349
    59  O   -0.725111
    60  O   -0.723752
    61  O   -0.719637
    62  O   -0.723313
    63  O   -0.707184
    64  O   -0.721922
    65  O   -0.725564
    66  O   -0.800283
    67  O   -0.800015
    68  O   -0.797783
    69  O   -0.808666
    70  K    0.865494
    71  K    0.865085
    72  K    0.861464
    73  V    1.189763
 Sum of Mulliken charges =  -1.00000

 Dipole moment (field-independent basis, Debye):
    X=             51.9899    Y=            -50.7810    Z=            -38.4909  Tot=             82.2387
 Quadrupole moment (field-independent basis, Debye-Ang):
   XX=          -1074.8940   YY=           -871.0111   ZZ=           -910.0554
   XY=            454.8929   XZ=            465.6147   YZ=           -471.7412

 Normal termination of Gaussian 16 at Sun Jun  2 00:36:57 2024.
