 Gaussian 16, Revision C.01,
 Gaussian 16:  ES64L-G16RevC.01  3-Jul-2019

 ----------------------------------------------------------------------
 # def2svp wb97xd scrf=(smd,solvent=acetonitrile) g09default scf=(xqc,m
 axcycle=64) force guess=read nosymm
 ----------------------------------------------------------------------

 ----------
 Title Card
 ----------
 Symbolic Z-matrix:
 Charge = -1 Multiplicity = 1

                          Input orientation:
 ---------------------------------------------------------------------
 Center     Atomic      Atomic             Coordinates (Angstroms)
 Number     Number       Type             X           Y           Z
 ---------------------------------------------------------------------
      1         17           0       -9.980699    7.949511   10.481866
      2          6           0       -8.309623    4.238369   12.232841
      3          6           0       -9.072595    3.916013   11.095431
      4          6           0      -10.007098    2.870275   11.198401
      5          6           0      -10.187393    2.182850   12.393799
      6          6           0       -9.428334    2.519705   13.514919
      7          6           0       -8.486671    3.547003   13.427056
      8          1           0       -7.571770    5.042514   12.189852
      9          1           0      -10.601502    2.600774   10.320365
     10          1           0      -10.925404    1.379291   12.453088
     11          1           0       -9.563441    1.978619   14.453584
     12          1           0       -7.891735    3.818061   14.302851
     13          6           0       -8.942762    4.628379    9.822965
     14          6           0       -8.125625    5.666855    9.572186
     15          1           0       -9.585359    4.261129    9.015599
     16          1           0       -8.078350    6.113589    8.577722
     17          1           0       -7.406923    6.038953   10.305839
     18          8           0       -1.008966   -1.761799    7.457509
     19          8           0       -8.411914   -1.327480    7.462868
     20          8           0       -7.053411    1.345040   10.488335
     21          8           0       -2.332831   -4.353824   10.561725
     22         74           0       -3.421961    0.739067    6.492169
     23         74           0       -6.011596   -3.829412    6.582229
     24         74           0       -3.631359    0.917082   11.410835
     25         74           0       -5.779644   -3.868380   11.472845
     26         74           0       -2.469738   -2.548746    6.381806
     27         74           0       -6.944318   -0.536735    6.350636
     28         74           0       -6.826219   -0.250142   11.590894
     29         74           0       -2.572740   -2.695375   11.628327
     30          8           0       -3.192500    1.938776    5.326352
     31          8           0       -6.147997   -5.080051    5.439995
     32          8           0       -2.715413    1.771466   12.559592
     33          8           0       -6.686725   -4.686576   12.653922
     34          8           0       -2.694148   -0.869133    5.585003
     35          8           0       -6.718048   -2.271241    5.627678
     36          8           0       -5.322628    0.566333   12.368218
     37          8           0       -4.065555   -3.512957   12.411857
     38          8           0        0.295626   -0.000060    9.270094
     39          8           0       -9.718397   -3.018659    9.325830
     40          8           0       -6.387277    3.417695    8.638764
     41          8           0       -2.967983   -6.453128    8.752714
     42          8           0       -1.807598    0.780966    7.480526
     43          8           0       -7.613336   -3.877107    7.558048
     44          8           0       -4.533152    2.219641   10.428328
     45          8           0       -4.864160   -5.213532   10.524947
     46          8           0       -1.633137   -3.474071    5.227322
     47          8           0       -7.832752    0.263138    5.158243
     48          8           0       -8.039616   -0.164844   12.774529
     49          8           0       -1.337813   -2.816910   12.789351
     50         74           0       -1.265821   -0.516899    8.842020
     51         74           0       -8.158869   -2.510430    8.879879
     52         74           0       -5.925097    1.850481    9.045708
     53         74           0       -3.469841   -4.883238    9.168263
     54          8           0       -4.238195   -3.091598    6.070212
     55          8           0       -5.174763   -0.032049    6.009469
     56          8           0       -6.185509   -1.999915   11.923059
     57          8           0       -3.187098   -0.951280   11.934205
     58          8           0       -4.386170    1.589250    7.849153
     59          8           0       -5.007416   -4.675061    7.926612
     60          8           0       -2.341916    0.601252   10.081424
     61          8           0       -7.066823   -3.611714   10.139839
     62          8           0       -2.580392   -3.871719    7.860114
     63          8           0       -6.840845    0.785553    7.804388
     64          8           0       -7.843930   -1.173768   10.158660
     65          8           0       -1.575300   -1.835946   10.150691
     66          8           0       -3.383624   -1.130670    8.013384
     67          8           0       -6.034059   -1.950281    8.040582
     68          8           0       -5.136406   -0.197052    9.951865
     69          8           0       -4.250661   -2.824016    9.980018
     70         19           0       -3.231153   -6.126084    5.660811
     71         19           0       -0.142704    0.043697   12.354252
     72         19           0       -9.275809   -2.926023   12.417599
     73         23           0       -4.703789   -1.521831    8.993816
 ---------------------------------------------------------------------

 SCF Done:  E(UwB97XD) =  -7327.70019981     A.U. after   34 cycles

 Alpha  occ. eigenvalues --  -19.24593 -18.93929 -18.92832 -18.92813 -13.36548
 Alpha  occ. eigenvalues --  -13.36533 -13.36500 -10.69475 -10.69471 -10.69470
 Alpha  occ. eigenvalues --  -10.69460 -10.69456 -10.69455 -10.69428 -10.69423
 Alpha  occ. eigenvalues --  -10.69421 -10.32814 -10.32182 -10.31752 -10.30855
 Alpha  occ. eigenvalues --  -10.30828 -10.30807 -10.30447 -10.30365  -9.52549
 Alpha  occ. eigenvalues --   -7.27432  -7.27090  -7.27083  -3.21056  -3.21034
 Alpha  occ. eigenvalues --   -3.21028  -3.21023  -3.21004  -3.20983  -3.20978
 Alpha  occ. eigenvalues --   -3.20975  -3.20964  -3.20828  -3.20808  -3.20785
 Alpha  occ. eigenvalues --   -2.78678  -1.85298  -1.85266  -1.85240  -1.85215
 Alpha  occ. eigenvalues --   -1.85094  -1.85050  -1.85028  -1.85010  -1.84997
 Alpha  occ. eigenvalues --   -1.84993  -1.84965  -1.84904  -1.84358  -1.84245
 Alpha  occ. eigenvalues --   -1.84231  -1.84227  -1.84187  -1.84178  -1.84109
 Alpha  occ. eigenvalues --   -1.84094  -1.84071  -1.84062  -1.84039  -1.84027
 Alpha  occ. eigenvalues --   -1.83909  -1.83883  -1.83868  -1.83862  -1.83826
 Alpha  occ. eigenvalues --   -1.83791  -1.83772  -1.83769  -1.83750  -1.83650
 Alpha  occ. eigenvalues --   -1.83648  -1.83633  -1.81849  -1.81505  -1.81496
 Alpha  occ. eigenvalues --   -1.50249  -1.50233  -1.50200  -1.08578  -1.06951
 Alpha  occ. eigenvalues --   -1.06916  -1.06887  -1.05977  -1.05969  -1.05934
 Alpha  occ. eigenvalues --   -1.04546  -1.04535  -1.04531  -1.03940  -1.03921
 Alpha  occ. eigenvalues --   -1.03644  -1.03325  -1.03281  -1.03267  -1.03026
 Alpha  occ. eigenvalues --   -1.03003  -1.02221  -1.02208  -1.02177  -1.02052
 Alpha  occ. eigenvalues --   -1.02008  -1.01980  -1.01907  -1.01881  -1.01775
 Alpha  occ. eigenvalues --   -1.01733  -1.01720  -1.01603  -1.01550  -1.01534
 Alpha  occ. eigenvalues --   -1.01284  -1.00788  -1.00755  -1.00705  -1.00694
 Alpha  occ. eigenvalues --   -0.99952  -0.99883  -0.99820  -0.96070  -0.89189
 Alpha  occ. eigenvalues --   -0.85689  -0.85672  -0.85646  -0.85536  -0.85531
 Alpha  occ. eigenvalues --   -0.85522  -0.85516  -0.85494  -0.85475  -0.84162
 Alpha  occ. eigenvalues --   -0.82267  -0.80962  -0.71824  -0.69502  -0.64966
 Alpha  occ. eigenvalues --   -0.62277  -0.61663  -0.61619  -0.61579  -0.60527
 Alpha  occ. eigenvalues --   -0.58938  -0.58935  -0.58919  -0.58857  -0.58788
 Alpha  occ. eigenvalues --   -0.58725  -0.58719  -0.58668  -0.58508  -0.57321
 Alpha  occ. eigenvalues --   -0.57287  -0.57257  -0.56972  -0.56686  -0.56447
 Alpha  occ. eigenvalues --   -0.56406  -0.56367  -0.55969  -0.55821  -0.55329
 Alpha  occ. eigenvalues --   -0.55326  -0.55291  -0.54317  -0.54160  -0.54132
 Alpha  occ. eigenvalues --   -0.53953  -0.53643  -0.53599  -0.53574  -0.52686
 Alpha  occ. eigenvalues --   -0.52593  -0.52572  -0.52485  -0.52438  -0.51468
 Alpha  occ. eigenvalues --   -0.51456  -0.51434  -0.51360  -0.51307  -0.50675
 Alpha  occ. eigenvalues --   -0.50550  -0.50505  -0.50450  -0.50350  -0.50256
 Alpha  occ. eigenvalues --   -0.50221  -0.50060  -0.50012  -0.49999  -0.49744
 Alpha  occ. eigenvalues --   -0.49653  -0.49633  -0.49465  -0.49434  -0.49274
 Alpha  occ. eigenvalues --   -0.49235  -0.49171  -0.49085  -0.49042  -0.48958
 Alpha  occ. eigenvalues --   -0.48697  -0.48538  -0.48517  -0.48458  -0.47682
 Alpha  occ. eigenvalues --   -0.47663  -0.47113  -0.46450  -0.46017  -0.45999
 Alpha  occ. eigenvalues --   -0.45845  -0.45736  -0.45672  -0.45580  -0.45183
 Alpha  occ. eigenvalues --   -0.45133  -0.45123  -0.44823  -0.44615  -0.44469
 Alpha  occ. eigenvalues --   -0.44441  -0.44436  -0.44244  -0.44223  -0.44205
 Alpha  occ. eigenvalues --   -0.43390  -0.42994  -0.42535  -0.42488  -0.42429
 Alpha  occ. eigenvalues --   -0.42285  -0.42148  -0.42133  -0.42043  -0.41617
 Alpha  occ. eigenvalues --   -0.41592  -0.41546  -0.41015  -0.40973  -0.40784
 Alpha  occ. eigenvalues --   -0.40741  -0.40730  -0.40392  -0.40383  -0.40333
 Alpha  occ. eigenvalues --   -0.40205  -0.40169  -0.40152  -0.40126  -0.39851
 Alpha  occ. eigenvalues --   -0.39327  -0.39251  -0.39226  -0.39133  -0.39011
 Alpha  occ. eigenvalues --   -0.38921  -0.38888  -0.38815  -0.38713  -0.38677
 Alpha  occ. eigenvalues --   -0.38302  -0.38275  -0.38241  -0.37815  -0.37181
 Alpha  occ. eigenvalues --   -0.37176  -0.34705  -0.34685  -0.33551  -0.29916
 Alpha  occ. eigenvalues --   -0.25635
 Alpha virt. eigenvalues --   -0.12027  -0.06225  -0.06180  -0.04775  -0.04696
 Alpha virt. eigenvalues --   -0.04596  -0.01490  -0.01395  -0.01334  -0.01069
 Alpha virt. eigenvalues --   -0.00900  -0.00865  -0.00813  -0.00131  -0.00055

  Beta  occ. eigenvalues -- -197.10659-129.99140-129.99124-129.99102-101.62551
  Beta  occ. eigenvalues --  -22.43092 -19.28501 -19.28484 -19.28453 -19.28376
  Beta  occ. eigenvalues --  -19.28368 -19.28353 -19.28342 -19.28338 -19.28324
  Beta  occ. eigenvalues --  -19.28232 -19.28208 -19.28124 -19.26953 -19.26910
  Beta  occ. eigenvalues --  -19.26904 -19.26899 -19.26880 -19.26878 -19.26845
  Beta  occ. eigenvalues --  -19.26838 -19.26830 -19.26823 -19.26811 -19.26803
  Beta  occ. eigenvalues --  -19.26793 -19.26789 -19.26785 -19.26781 -19.26778
  Beta  occ. eigenvalues --  -19.26776 -19.26740 -19.26720 -19.26711 -19.26705
  Beta  occ. eigenvalues --  -19.26652 -19.26617 -19.24661 -19.24599 -19.24591
  Beta  occ. eigenvalues --  -19.24568 -18.93584 -18.91378 -18.91342 -13.36548
  Beta  occ. eigenvalues --  -13.36533 -13.36500 -10.69475 -10.69471 -10.69470
  Beta  occ. eigenvalues --  -10.69460 -10.69456 -10.69455 -10.69428 -10.69423
  Beta  occ. eigenvalues --  -10.69421 -10.33048 -10.32351 -10.31710 -10.30942
  Beta  occ. eigenvalues --  -10.30932 -10.30891 -10.30398 -10.30315  -9.53006
  Beta  occ. eigenvalues --   -7.28871  -7.27402  -7.27396  -3.21056  -3.21028
  Beta  occ. eigenvalues --   -3.21027  -3.21022  -3.20998  -3.20977  -3.20971
  Beta  occ. eigenvalues --   -3.20969  -3.20958  -3.20827  -3.20804  -3.20779
  Beta  occ. eigenvalues --   -2.74618  -1.85293  -1.85261  -1.85236  -1.85207
  Beta  occ. eigenvalues --   -1.85089  -1.85045  -1.85021  -1.85002  -1.84990
  Beta  occ. eigenvalues --   -1.84985  -1.84961  -1.84895  -1.84355  -1.84243
  Beta  occ. eigenvalues --   -1.84228  -1.84223  -1.84184  -1.84175  -1.84106
  Beta  occ. eigenvalues --   -1.84092  -1.84068  -1.84059  -1.84037  -1.84023
  Beta  occ. eigenvalues --   -1.83907  -1.83879  -1.83865  -1.83859  -1.83824
  Beta  occ. eigenvalues --   -1.83789  -1.83769  -1.83766  -1.83747  -1.83649
  Beta  occ. eigenvalues --   -1.83646  -1.83631  -1.80513  -1.75790  -1.75719
  Beta  occ. eigenvalues --   -1.50249  -1.50233  -1.50200  -1.08562  -1.06932
  Beta  occ. eigenvalues --   -1.06894  -1.06862  -1.05976  -1.05967  -1.05933
  Beta  occ. eigenvalues --   -1.04546  -1.04534  -1.04532  -1.03939  -1.03924
  Beta  occ. eigenvalues --   -1.03578  -1.03294  -1.03246  -1.03234  -1.03024
  Beta  occ. eigenvalues --   -1.02995  -1.02202  -1.02183  -1.02162  -1.02044
  Beta  occ. eigenvalues --   -1.02003  -1.01967  -1.01903  -1.01871  -1.01771
  Beta  occ. eigenvalues --   -1.01730  -1.01717  -1.01603  -1.01548  -1.01519
  Beta  occ. eigenvalues --   -1.01284  -1.00760  -1.00745  -1.00704  -1.00690
  Beta  occ. eigenvalues --   -0.99817  -0.99738  -0.99700  -0.96269  -0.89836
  Beta  occ. eigenvalues --   -0.85689  -0.85672  -0.85646  -0.85536  -0.85531
  Beta  occ. eigenvalues --   -0.85522  -0.85516  -0.85494  -0.85475  -0.84503
  Beta  occ. eigenvalues --   -0.84242  -0.82655  -0.72078  -0.69611  -0.65198
  Beta  occ. eigenvalues --   -0.62277  -0.61662  -0.61619  -0.61579  -0.60709
  Beta  occ. eigenvalues --   -0.58937  -0.58932  -0.58917  -0.58773  -0.58734
  Beta  occ. eigenvalues --   -0.58708  -0.58697  -0.58638  -0.58508  -0.57299
  Beta  occ. eigenvalues --   -0.57132  -0.57090  -0.56947  -0.56839  -0.56448
  Beta  occ. eigenvalues --   -0.56376  -0.56332  -0.55777  -0.55562  -0.55309
  Beta  occ. eigenvalues --   -0.55308  -0.55291  -0.54482  -0.54156  -0.54122
  Beta  occ. eigenvalues --   -0.53942  -0.53613  -0.53577  -0.53533  -0.52733
  Beta  occ. eigenvalues --   -0.52618  -0.52560  -0.52468  -0.52430  -0.51460
  Beta  occ. eigenvalues --   -0.51429  -0.51412  -0.51304  -0.51245  -0.50838
  Beta  occ. eigenvalues --   -0.50469  -0.50441  -0.50392  -0.50304  -0.50216
  Beta  occ. eigenvalues --   -0.50162  -0.50028  -0.50012  -0.49970  -0.49690
  Beta  occ. eigenvalues --   -0.49629  -0.49612  -0.49456  -0.49424  -0.49276
  Beta  occ. eigenvalues --   -0.49212  -0.49173  -0.49057  -0.49026  -0.48935
  Beta  occ. eigenvalues --   -0.48689  -0.48545  -0.48517  -0.48449  -0.47768
  Beta  occ. eigenvalues --   -0.47637  -0.47537  -0.45891  -0.45873  -0.45783
  Beta  occ. eigenvalues --   -0.45775  -0.45653  -0.45541  -0.45184  -0.45152
  Beta  occ. eigenvalues --   -0.45128  -0.45023  -0.44823  -0.44615  -0.44451
  Beta  occ. eigenvalues --   -0.44421  -0.44390  -0.44243  -0.44191  -0.44173
  Beta  occ. eigenvalues --   -0.43384  -0.43082  -0.42486  -0.42458  -0.42386
  Beta  occ. eigenvalues --   -0.42234  -0.42112  -0.42103  -0.42095  -0.41595
  Beta  occ. eigenvalues --   -0.41584  -0.41532  -0.41303  -0.41019  -0.40925
  Beta  occ. eigenvalues --   -0.40735  -0.40703  -0.40641  -0.40375  -0.40370
  Beta  occ. eigenvalues --   -0.40306  -0.40158  -0.40140  -0.40115  -0.39793
  Beta  occ. eigenvalues --   -0.39617  -0.39328  -0.39154  -0.39096  -0.39074
  Beta  occ. eigenvalues --   -0.38886  -0.38860  -0.38811  -0.38711  -0.38664
  Beta  occ. eigenvalues --   -0.38628  -0.38300  -0.38268  -0.38236  -0.37616
  Beta  occ. eigenvalues --   -0.37183  -0.37170  -0.35660  -0.35643  -0.33787
  Beta  occ. eigenvalues --   -0.30731
  Beta virt. eigenvalues --   -0.06224  -0.06181  -0.04774  -0.04695  -0.04595
  Beta virt. eigenvalues --   -0.01486  -0.01391  -0.01329  -0.01064  -0.00894
  Beta virt. eigenvalues --   -0.00862  -0.00810  -0.00129  -0.00044  -0.00010

 Mulliken charges and spin densities:
               1          2
     1  Cl  -0.350314  -0.621112
     2  C   -0.037803  -0.081120
     3  C    0.014698   0.046248
     4  C   -0.035958  -0.077632
     5  C   -0.031240   0.049990
     6  C    0.006681  -0.098304
     7  C   -0.049047   0.049415
     8  H    0.046893   0.003452
     9  H    0.049332   0.003338
    10  H    0.053864  -0.001765
    11  H    0.054965   0.004320
    12  H    0.052719  -0.001720
    13  C    0.000332  -0.205890
    14  C   -0.026327  -0.082692
    15  H    0.072706   0.008853
    16  H    0.094513   0.004542
    17  H    0.092685   0.003775
    18  O   -0.671643  -0.000566
    19  O   -0.668378  -0.000496
    20  O   -0.666011  -0.001883
    21  O   -0.670582  -0.000524
    22  W    1.716757   0.000354
    23  W    1.655090   0.000514
    24  W    1.667365   0.000189
    25  W    1.675822   0.000188
    26  W    1.660476   0.002780
    27  W    1.708048   0.002520
    28  W    1.612733   0.003321
    29  W    1.668505   0.002925
    30  O   -0.351325  -0.000532
    31  O   -0.394786  -0.000561
    32  O   -0.394356  -0.000599
    33  O   -0.392514  -0.000551
    34  O   -0.672089  -0.000307
    35  O   -0.677175  -0.000067
    36  O   -0.669400  -0.000151
    37  O   -0.671168  -0.000234
    38  O   -0.395830   0.002080
    39  O   -0.396193   0.002097
    40  O   -0.339705  -0.001037
    41  O   -0.395791   0.002085
    42  O   -0.677057   0.000080
    43  O   -0.670557   0.000181
    44  O   -0.666761   0.000301
    45  O   -0.673540   0.000099
    46  O   -0.395976   0.002333
    47  O   -0.352824   0.002221
    48  O   -0.387473   0.001798
    49  O   -0.394740   0.002385
    50  W    1.656838   0.002821
    51  W    1.659913   0.002708
    52  W    1.671574   0.003819
    53  W    1.668000   0.002647
    54  O   -0.720426   0.000097
    55  O   -0.703989   0.000004
    56  O   -0.722042   0.000165
    57  O   -0.718950   0.000055
    58  O   -0.702636  -0.000015
    59  O   -0.722339   0.000153
    60  O   -0.721209   0.000203
    61  O   -0.717311   0.000200
    62  O   -0.721691  -0.000172
    63  O   -0.705429  -0.000010
    64  O   -0.721044  -0.000190
    65  O   -0.723488  -0.000203
    66  O   -0.882527   0.005203
    67  O   -0.882909   0.007308
    68  O   -0.880837   0.007090
    69  O   -0.888009   0.006586
    70  K    0.851929   0.000195
    71  K    0.851695   0.000217
    72  K    0.847680   0.000241
    73  V    1.199585   0.936234
 Sum of Mulliken charges =  -1.00000  -0.00000

 Dipole moment (field-independent basis, Debye):
    X=             29.3805    Y=            -13.7609    Z=            -30.7303  Tot=             44.6870
 Quadrupole moment (field-independent basis, Debye-Ang):
   XX=           -781.0317   YY=           -700.5408   ZZ=           -782.5969
   XY=            132.3150   XZ=            187.8694   YZ=            -93.7884

 Normal termination of Gaussian 16 at Sun Jun  2 00:26:19 2024.
