 Gaussian 16, Revision C.01,
 Gaussian 16:  ES64L-G16RevC.01  3-Jul-2019

 ----------------------------------------------------------------------
 # def2svp wb97xd scrf=(smd,solvent=acetonitrile) g09default scf=(xqc,m
 axcycle=64) force guess=read nosymm
 ----------------------------------------------------------------------

 ----------
 Title Card
 ----------
 Symbolic Z-matrix:
 Charge = -1 Multiplicity = 1

                          Input orientation:
 ---------------------------------------------------------------------
 Center     Atomic      Atomic             Coordinates (Angstroms)
 Number     Number       Type             X           Y           Z
 ---------------------------------------------------------------------
      1         17           0       -9.978150    7.963020   10.485566
      2          6           0       -8.310433    4.238263   12.232502
      3          6           0       -9.074331    3.916242   11.095765
      4          6           0      -10.008237    2.869598   11.198448
      5          6           0      -10.187820    2.182148   12.394478
      6          6           0       -9.428600    2.519904   13.515170
      7          6           0       -8.486727    3.546969   13.426892
      8          1           0       -7.571485    5.041241   12.187982
      9          1           0      -10.601272    2.598837   10.320419
     10          1           0      -10.925207    1.378479   12.454157
     11          1           0       -9.564536    1.979976   14.454350
     12          1           0       -7.891212    3.817744   14.302253
     13          6           0       -8.944820    4.628585    9.823651
     14          6           0       -8.129352    5.668521    9.572296
     15          1           0       -9.586837    4.260338    9.016008
     16          1           0       -8.083152    6.114440    8.577622
     17          1           0       -7.413651    6.045443   10.306750
     18          8           0       -1.008132   -1.761972    7.457170
     19          8           0       -8.412137   -1.328016    7.462328
     20          8           0       -7.052432    1.345507   10.488203
     21          8           0       -2.332703   -4.354829   10.561704
     22         74           0       -3.421353    0.737459    6.491244
     23         74           0       -6.011241   -3.829227    6.581695
     24         74           0       -3.631149    0.916328   11.411280
     25         74           0       -5.779144   -3.867706   11.472609
     26         74           0       -2.469152   -2.549598    6.382703
     27         74           0       -6.944060   -0.537072    6.351462
     28         74           0       -6.825852   -0.249902   11.589450
     29         74           0       -2.572697   -2.695888   11.627349
     30          8           0       -3.190860    1.936300    5.325187
     31          8           0       -6.148675   -5.079102    5.438675
     32          8           0       -2.716437    1.770738   12.561078
     33          8           0       -6.685092   -4.686422   12.654595
     34          8           0       -2.692898   -0.869992    5.584937
     35          8           0       -6.718211   -2.271407    5.627678
     36          8           0       -5.322524    0.566584   12.367714
     37          8           0       -4.065084   -3.513702   12.411396
     38          8           0        0.295413    0.000474    9.269516
     39          8           0       -9.718053   -3.019488    9.324767
     40          8           0       -6.386101    3.417595    8.641441
     41          8           0       -2.969057   -6.453906    8.754027
     42          8           0       -1.806711    0.780047    7.479667
     43          8           0       -7.613476   -3.877077    7.557248
     44          8           0       -4.532502    2.219724   10.429049
     45          8           0       -4.863899   -5.213517   10.525188
     46          8           0       -1.631872   -3.474957    5.228726
     47          8           0       -7.833601    0.262153    5.159793
     48          8           0       -8.039659   -0.163088   12.772542
     49          8           0       -1.337441   -2.819430   12.788139
     50         74           0       -1.265871   -0.516945    8.841552
     51         74           0       -8.158581   -2.511108    8.879182
     52         74           0       -5.923154    1.850153    9.046105
     53         74           0       -3.470343   -4.883389    9.168791
     54          8           0       -4.237988   -3.091666    6.069869
     55          8           0       -5.174039   -0.032987    6.008823
     56          8           0       -6.184670   -1.999614   11.922726
     57          8           0       -3.186829   -0.951716   11.934657
     58          8           0       -4.384885    1.587975    7.849433
     59          8           0       -5.007547   -4.675074    7.926437
     60          8           0       -2.341761    0.600884   10.081367
     61          8           0       -7.066686   -3.611768   10.139520
     62          8           0       -2.580096   -3.871963    7.860482
     63          8           0       -6.839950    0.785025    7.804836
     64          8           0       -7.843467   -1.173554   10.157645
     65          8           0       -1.575475   -1.836797   10.149883
     66          8           0       -3.382841   -1.131097    8.012522
     67          8           0       -6.034129   -1.950358    8.039707
     68          8           0       -5.135539   -0.196816    9.952038
     69          8           0       -4.250438   -2.824362    9.980088
     70         19           0       -3.230471   -6.127486    5.659716
     71         19           0       -0.140783    0.044683   12.355078
     72         19           0       -9.277214   -2.924733   12.419136
     73         23           0       -4.703404   -1.522063    8.993416
 ---------------------------------------------------------------------

 SCF Done:  E(RwB97XD) =  -7327.70037196     A.U. after   11 cycles

 Alpha  occ. eigenvalues -- -197.29278-130.00149-130.00127-130.00048-101.47594
 Alpha  occ. eigenvalues --  -22.62414 -19.33557 -19.33539 -19.33536 -19.33513
 Alpha  occ. eigenvalues --  -19.30690 -19.30666 -19.30660 -19.30651 -19.30650
 Alpha  occ. eigenvalues --  -19.30641 -19.30614 -19.30585 -19.30495 -19.30306
 Alpha  occ. eigenvalues --  -19.30287 -19.30038 -19.29326 -19.29322 -19.29293
 Alpha  occ. eigenvalues --  -19.29283 -19.29281 -19.29271 -19.29262 -19.29207
 Alpha  occ. eigenvalues --  -19.29182 -19.29165 -19.29148 -19.29132 -19.29112
 Alpha  occ. eigenvalues --  -19.29104 -19.29101 -19.29090 -19.29072 -19.29065
 Alpha  occ. eigenvalues --  -19.29037 -19.28981 -19.28956 -19.28947 -19.28920
 Alpha  occ. eigenvalues --  -19.28729 -19.11369 -19.11361 -19.11352 -13.37552
 Alpha  occ. eigenvalues --  -13.37530 -13.37440 -10.70481 -10.70474 -10.70474
 Alpha  occ. eigenvalues --  -10.70459 -10.70452 -10.70452 -10.70371 -10.70364
 Alpha  occ. eigenvalues --  -10.70361 -10.29793 -10.29313 -10.29255 -10.29056
 Alpha  occ. eigenvalues --  -10.28963 -10.28961 -10.28099 -10.27564  -9.38051
 Alpha  occ. eigenvalues --   -7.12872  -7.12833  -7.12832  -3.23281  -3.23264
 Alpha  occ. eigenvalues --   -3.23261  -3.23255  -3.23245  -3.23239  -3.23181
 Alpha  occ. eigenvalues --   -3.23177  -3.23134  -3.22902  -3.22896  -3.22637
 Alpha  occ. eigenvalues --   -2.91688  -1.94076  -1.94047  -1.94035  -1.87685
 Alpha  occ. eigenvalues --   -1.87626  -1.87600  -1.87540  -1.87455  -1.87438
 Alpha  occ. eigenvalues --   -1.87432  -1.87396  -1.87347  -1.87213  -1.87184
 Alpha  occ. eigenvalues --   -1.86979  -1.86591  -1.86472  -1.86466  -1.86439
 Alpha  occ. eigenvalues --   -1.86417  -1.86372  -1.86302  -1.86286  -1.86264
 Alpha  occ. eigenvalues --   -1.86249  -1.86220  -1.86188  -1.86112  -1.86086
 Alpha  occ. eigenvalues --   -1.86082  -1.86050  -1.86011  -1.85954  -1.85934
 Alpha  occ. eigenvalues --   -1.85873  -1.85838  -1.85745  -1.85610  -1.85539
 Alpha  occ. eigenvalues --   -1.51236  -1.51215  -1.51126  -1.12968  -1.11204
 Alpha  occ. eigenvalues --   -1.11106  -1.11099  -1.08908  -1.08490  -1.08435
 Alpha  occ. eigenvalues --   -1.08260  -1.07508  -1.07450  -1.07423  -1.06862
 Alpha  occ. eigenvalues --   -1.06837  -1.06802  -1.06268  -1.06228  -1.05297
 Alpha  occ. eigenvalues --   -1.05291  -1.04941  -1.04930  -1.04901  -1.04177
 Alpha  occ. eigenvalues --   -1.04172  -1.04139  -1.03993  -1.03975  -1.03963
 Alpha  occ. eigenvalues --   -1.03911  -1.03855  -1.03839  -1.03723  -1.03678
 Alpha  occ. eigenvalues --   -1.03586  -1.03531  -1.03253  -1.03221  -1.03096
 Alpha  occ. eigenvalues --   -1.03081  -1.03016  -1.02880  -0.94380  -0.86701
 Alpha  occ. eigenvalues --   -0.86680  -0.86596  -0.86532  -0.86513  -0.86507
 Alpha  occ. eigenvalues --   -0.86489  -0.86484  -0.86406  -0.86389  -0.82810
 Alpha  occ. eigenvalues --   -0.79776  -0.70754  -0.69776  -0.68017  -0.64542
 Alpha  occ. eigenvalues --   -0.63909  -0.63851  -0.63833  -0.63233  -0.63203
 Alpha  occ. eigenvalues --   -0.63099  -0.63029  -0.62608  -0.62540  -0.61896
 Alpha  occ. eigenvalues --   -0.61553  -0.61534  -0.61441  -0.61188  -0.61172
 Alpha  occ. eigenvalues --   -0.61130  -0.60368  -0.59405  -0.59390  -0.59381
 Alpha  occ. eigenvalues --   -0.59331  -0.59307  -0.58678  -0.57955  -0.57922
 Alpha  occ. eigenvalues --   -0.57856  -0.57011  -0.56976  -0.56938  -0.56237
 Alpha  occ. eigenvalues --   -0.56194  -0.56051  -0.55664  -0.54817  -0.54766
 Alpha  occ. eigenvalues --   -0.54723  -0.54568  -0.54199  -0.54090  -0.54038
 Alpha  occ. eigenvalues --   -0.53992  -0.53903  -0.53234  -0.53180  -0.53058
 Alpha  occ. eigenvalues --   -0.52982  -0.52868  -0.52693  -0.52645  -0.52602
 Alpha  occ. eigenvalues --   -0.52556  -0.52495  -0.52436  -0.52415  -0.51547
 Alpha  occ. eigenvalues --   -0.51522  -0.51341  -0.51296  -0.51275  -0.51215
 Alpha  occ. eigenvalues --   -0.51139  -0.51102  -0.51006  -0.50746  -0.50564
 Alpha  occ. eigenvalues --   -0.50557  -0.50530  -0.49884  -0.49877  -0.49265
 Alpha  occ. eigenvalues --   -0.49244  -0.49223  -0.49171  -0.49125  -0.49033
 Alpha  occ. eigenvalues --   -0.48860  -0.48043  -0.47993  -0.47879  -0.47664
 Alpha  occ. eigenvalues --   -0.47328  -0.47267  -0.47208  -0.46979  -0.46933
 Alpha  occ. eigenvalues --   -0.46824  -0.46554  -0.46526  -0.46417  -0.46171
 Alpha  occ. eigenvalues --   -0.46108  -0.46051  -0.45592  -0.45060  -0.44880
 Alpha  occ. eigenvalues --   -0.44848  -0.44144  -0.44121  -0.43979  -0.43549
 Alpha  occ. eigenvalues --   -0.43280  -0.43221  -0.43093  -0.43075  -0.43031
 Alpha  occ. eigenvalues --   -0.42704  -0.42679  -0.42641  -0.42571  -0.42560
 Alpha  occ. eigenvalues --   -0.42484  -0.42438  -0.42424  -0.42268  -0.42257
 Alpha  occ. eigenvalues --   -0.42221  -0.42001  -0.41879  -0.41821  -0.41808
 Alpha  occ. eigenvalues --   -0.41199  -0.41192  -0.41143  -0.41041  -0.40536
 Alpha  occ. eigenvalues --   -0.40524  -0.40500  -0.40385  -0.39417  -0.39390
 Alpha  occ. eigenvalues --   -0.36841  -0.32530  -0.28793  -0.24509  -0.24477
 Alpha  occ. eigenvalues --   -0.23166
 Alpha virt. eigenvalues --   -0.09317  -0.09116  -0.08337  -0.08284  -0.06911
 Alpha virt. eigenvalues --   -0.06846  -0.06761  -0.04328  -0.04048  -0.04014
 Alpha virt. eigenvalues --   -0.03656  -0.03489  -0.03406  -0.03174  -0.03047

 Mulliken charges:
               1
     1  Cl  -0.931225
     2  C   -0.079099
     3  C    0.040270
     4  C   -0.076387
     5  C   -0.033187
     6  C   -0.030959
     7  C   -0.050323
     8  H    0.028221
     9  H    0.029690
    10  H    0.040236
    11  H    0.036678
    12  H    0.039309
    13  C   -0.088944
    14  C    0.017675
    15  H    0.019189
    16  H    0.039371
    17  H    0.037332
    18  O   -0.662960
    19  O   -0.659529
    20  O   -0.654931
    21  O   -0.661459
    22  W    1.733638
    23  W    1.669559
    24  W    1.679735
    25  W    1.689946
    26  W    1.674519
    27  W    1.725971
    28  W    1.621090
    29  W    1.682864
    30  O   -0.321487
    31  O   -0.366452
    32  O   -0.366167
    33  O   -0.364024
    34  O   -0.663849
    35  O   -0.669959
    36  O   -0.660648
    37  O   -0.662300
    38  O   -0.366055
    39  O   -0.366046
    40  O   -0.292955
    41  O   -0.365850
    42  O   -0.669602
    43  O   -0.662143
    44  O   -0.658286
    45  O   -0.665282
    46  O   -0.366057
    47  O   -0.321197
    48  O   -0.354692
    49  O   -0.364725
    50  W    1.671204
    51  W    1.674208
    52  W    1.676595
    53  W    1.682686
    54  O   -0.722628
    55  O   -0.705814
    56  O   -0.725584
    57  O   -0.720877
    58  O   -0.705750
    59  O   -0.725224
    60  O   -0.723889
    61  O   -0.719742
    62  O   -0.723497
    63  O   -0.707497
    64  O   -0.722151
    65  O   -0.725706
    66  O   -0.800536
    67  O   -0.800186
    68  O   -0.798104
    69  O   -0.808956
    70  K    0.865812
    71  K    0.865481
    72  K    0.861883
    73  V    1.189764
 Sum of Mulliken charges =  -1.00000

 Dipole moment (field-independent basis, Debye):
    X=             51.9834    Y=            -50.8572    Z=            -38.4952  Tot=             82.2837
 Quadrupole moment (field-independent basis, Debye-Ang):
   XX=          -1074.6049   YY=           -872.1350   ZZ=           -910.0642
   XY=            455.6192   XZ=            465.5845   YZ=           -472.6102

 Normal termination of Gaussian 16 at Sun Jun  2 01:12:14 2024.
