 Gaussian 16, Revision C.01,
 Gaussian 16:  ES64L-G16RevC.01  3-Jul-2019

 ----------------------------------------------------------------------
 # def2svp wb97xd scrf=(smd,solvent=acetonitrile) g09default scf=(xqc,m
 axcycle=64) force guess=read nosymm
 ----------------------------------------------------------------------

 ----------
 Title Card
 ----------
 Symbolic Z-matrix:
 Charge = -1 Multiplicity = 1

                          Input orientation:
 ---------------------------------------------------------------------
 Center     Atomic      Atomic             Coordinates (Angstroms)
 Number     Number       Type             X           Y           Z
 ---------------------------------------------------------------------
      1         17           0       -9.978150    7.963020   10.485566
      2          6           0       -8.310433    4.238263   12.232502
      3          6           0       -9.074331    3.916242   11.095765
      4          6           0      -10.008237    2.869598   11.198448
      5          6           0      -10.187820    2.182148   12.394478
      6          6           0       -9.428600    2.519904   13.515170
      7          6           0       -8.486727    3.546969   13.426892
      8          1           0       -7.571485    5.041241   12.187982
      9          1           0      -10.601272    2.598837   10.320419
     10          1           0      -10.925207    1.378479   12.454157
     11          1           0       -9.564536    1.979976   14.454350
     12          1           0       -7.891212    3.817744   14.302253
     13          6           0       -8.944820    4.628585    9.823651
     14          6           0       -8.129352    5.668521    9.572296
     15          1           0       -9.586837    4.260338    9.016008
     16          1           0       -8.083152    6.114440    8.577622
     17          1           0       -7.413651    6.045443   10.306750
     18          8           0       -1.008132   -1.761972    7.457170
     19          8           0       -8.412137   -1.328016    7.462328
     20          8           0       -7.052432    1.345507   10.488203
     21          8           0       -2.332703   -4.354829   10.561704
     22         74           0       -3.421353    0.737459    6.491244
     23         74           0       -6.011241   -3.829227    6.581695
     24         74           0       -3.631149    0.916328   11.411280
     25         74           0       -5.779144   -3.867706   11.472609
     26         74           0       -2.469152   -2.549598    6.382703
     27         74           0       -6.944060   -0.537072    6.351462
     28         74           0       -6.825852   -0.249902   11.589450
     29         74           0       -2.572697   -2.695888   11.627349
     30          8           0       -3.190860    1.936300    5.325187
     31          8           0       -6.148675   -5.079102    5.438675
     32          8           0       -2.716437    1.770738   12.561078
     33          8           0       -6.685092   -4.686422   12.654595
     34          8           0       -2.692898   -0.869992    5.584937
     35          8           0       -6.718211   -2.271407    5.627678
     36          8           0       -5.322524    0.566584   12.367714
     37          8           0       -4.065084   -3.513702   12.411396
     38          8           0        0.295413    0.000474    9.269516
     39          8           0       -9.718053   -3.019488    9.324767
     40          8           0       -6.386101    3.417595    8.641441
     41          8           0       -2.969057   -6.453906    8.754027
     42          8           0       -1.806711    0.780047    7.479667
     43          8           0       -7.613476   -3.877077    7.557248
     44          8           0       -4.532502    2.219724   10.429049
     45          8           0       -4.863899   -5.213517   10.525188
     46          8           0       -1.631872   -3.474957    5.228726
     47          8           0       -7.833601    0.262153    5.159793
     48          8           0       -8.039659   -0.163088   12.772542
     49          8           0       -1.337441   -2.819430   12.788139
     50         74           0       -1.265871   -0.516945    8.841552
     51         74           0       -8.158581   -2.511108    8.879182
     52         74           0       -5.923154    1.850153    9.046105
     53         74           0       -3.470343   -4.883389    9.168791
     54          8           0       -4.237988   -3.091666    6.069869
     55          8           0       -5.174039   -0.032987    6.008823
     56          8           0       -6.184670   -1.999614   11.922726
     57          8           0       -3.186829   -0.951716   11.934657
     58          8           0       -4.384885    1.587975    7.849433
     59          8           0       -5.007547   -4.675074    7.926437
     60          8           0       -2.341761    0.600884   10.081367
     61          8           0       -7.066686   -3.611768   10.139520
     62          8           0       -2.580096   -3.871963    7.860482
     63          8           0       -6.839950    0.785025    7.804836
     64          8           0       -7.843467   -1.173554   10.157645
     65          8           0       -1.575475   -1.836797   10.149883
     66          8           0       -3.382841   -1.131097    8.012522
     67          8           0       -6.034129   -1.950358    8.039707
     68          8           0       -5.135539   -0.196816    9.952038
     69          8           0       -4.250438   -2.824362    9.980088
     70         19           0       -3.230471   -6.127486    5.659716
     71         19           0       -0.140783    0.044683   12.355078
     72         19           0       -9.277214   -2.924733   12.419136
     73         23           0       -4.703404   -1.522063    8.993416
 ---------------------------------------------------------------------

 SCF Done:  E(UwB97XD) =  -7327.70032529     A.U. after   34 cycles

 Alpha  occ. eigenvalues --  -19.24619 -18.93994 -18.92893 -18.92880 -13.36561
 Alpha  occ. eigenvalues --  -13.36543 -13.36512 -10.69488 -10.69483 -10.69483
 Alpha  occ. eigenvalues --  -10.69469 -10.69465 -10.69465 -10.69440 -10.69436
 Alpha  occ. eigenvalues --  -10.69433 -10.32805 -10.32168 -10.31752 -10.30854
 Alpha  occ. eigenvalues --  -10.30828 -10.30811 -10.30447 -10.30367  -9.52583
 Alpha  occ. eigenvalues --   -7.27466  -7.27123  -7.27116  -3.21055  -3.21032
 Alpha  occ. eigenvalues --   -3.21026  -3.21024  -3.21003  -3.20984  -3.20978
 Alpha  occ. eigenvalues --   -3.20976  -3.20964  -3.20826  -3.20805  -3.20781
 Alpha  occ. eigenvalues --   -2.78728  -1.85297  -1.85265  -1.85240  -1.85216
 Alpha  occ. eigenvalues --   -1.85093  -1.85049  -1.85028  -1.85010  -1.84997
 Alpha  occ. eigenvalues --   -1.84993  -1.84966  -1.84904  -1.84358  -1.84245
 Alpha  occ. eigenvalues --   -1.84231  -1.84227  -1.84187  -1.84179  -1.84108
 Alpha  occ. eigenvalues --   -1.84094  -1.84071  -1.84061  -1.84040  -1.84027
 Alpha  occ. eigenvalues --   -1.83908  -1.83882  -1.83868  -1.83862  -1.83824
 Alpha  occ. eigenvalues --   -1.83790  -1.83773  -1.83767  -1.83748  -1.83648
 Alpha  occ. eigenvalues --   -1.83645  -1.83630  -1.81893  -1.81549  -1.81543
 Alpha  occ. eigenvalues --   -1.50260  -1.50242  -1.50212  -1.08585  -1.06957
 Alpha  occ. eigenvalues --   -1.06920  -1.06895  -1.05979  -1.05971  -1.05936
 Alpha  occ. eigenvalues --   -1.04547  -1.04537  -1.04534  -1.03944  -1.03926
 Alpha  occ. eigenvalues --   -1.03661  -1.03330  -1.03287  -1.03271  -1.03026
 Alpha  occ. eigenvalues --   -1.03002  -1.02225  -1.02214  -1.02183  -1.02050
 Alpha  occ. eigenvalues --   -1.02004  -1.01977  -1.01904  -1.01878  -1.01775
 Alpha  occ. eigenvalues --   -1.01732  -1.01720  -1.01604  -1.01553  -1.01535
 Alpha  occ. eigenvalues --   -1.01285  -1.00793  -1.00754  -1.00705  -1.00694
 Alpha  occ. eigenvalues --   -0.99971  -0.99899  -0.99837  -0.96067  -0.89184
 Alpha  occ. eigenvalues --   -0.85700  -0.85681  -0.85657  -0.85548  -0.85542
 Alpha  occ. eigenvalues --   -0.85531  -0.85525  -0.85506  -0.85487  -0.84160
 Alpha  occ. eigenvalues --   -0.82262  -0.80985  -0.71822  -0.69510  -0.64962
 Alpha  occ. eigenvalues --   -0.62280  -0.61663  -0.61622  -0.61582  -0.60524
 Alpha  occ. eigenvalues --   -0.58939  -0.58936  -0.58918  -0.58860  -0.58790
 Alpha  occ. eigenvalues --   -0.58730  -0.58723  -0.58672  -0.58513  -0.57333
 Alpha  occ. eigenvalues --   -0.57300  -0.57270  -0.56984  -0.56681  -0.56451
 Alpha  occ. eigenvalues --   -0.56410  -0.56371  -0.55978  -0.55830  -0.55335
 Alpha  occ. eigenvalues --   -0.55332  -0.55297  -0.54319  -0.54162  -0.54134
 Alpha  occ. eigenvalues --   -0.53955  -0.53651  -0.53607  -0.53581  -0.52687
 Alpha  occ. eigenvalues --   -0.52595  -0.52569  -0.52483  -0.52437  -0.51471
 Alpha  occ. eigenvalues --   -0.51457  -0.51437  -0.51361  -0.51308  -0.50674
 Alpha  occ. eigenvalues --   -0.50547  -0.50507  -0.50452  -0.50351  -0.50255
 Alpha  occ. eigenvalues --   -0.50219  -0.50060  -0.50010  -0.49998  -0.49741
 Alpha  occ. eigenvalues --   -0.49649  -0.49628  -0.49467  -0.49437  -0.49276
 Alpha  occ. eigenvalues --   -0.49239  -0.49173  -0.49087  -0.49046  -0.48960
 Alpha  occ. eigenvalues --   -0.48692  -0.48534  -0.48511  -0.48455  -0.47682
 Alpha  occ. eigenvalues --   -0.47660  -0.47112  -0.46453  -0.46020  -0.46000
 Alpha  occ. eigenvalues --   -0.45848  -0.45738  -0.45670  -0.45580  -0.45183
 Alpha  occ. eigenvalues --   -0.45138  -0.45127  -0.44823  -0.44613  -0.44470
 Alpha  occ. eigenvalues --   -0.44443  -0.44437  -0.44249  -0.44221  -0.44203
 Alpha  occ. eigenvalues --   -0.43403  -0.42991  -0.42540  -0.42492  -0.42434
 Alpha  occ. eigenvalues --   -0.42291  -0.42153  -0.42139  -0.42048  -0.41621
 Alpha  occ. eigenvalues --   -0.41597  -0.41550  -0.41016  -0.40973  -0.40784
 Alpha  occ. eigenvalues --   -0.40741  -0.40732  -0.40391  -0.40383  -0.40331
 Alpha  occ. eigenvalues --   -0.40204  -0.40170  -0.40151  -0.40125  -0.39851
 Alpha  occ. eigenvalues --   -0.39331  -0.39257  -0.39235  -0.39136  -0.39020
 Alpha  occ. eigenvalues --   -0.38924  -0.38891  -0.38820  -0.38727  -0.38686
 Alpha  occ. eigenvalues --   -0.38304  -0.38276  -0.38242  -0.37815  -0.37184
 Alpha  occ. eigenvalues --   -0.37177  -0.34728  -0.34709  -0.33548  -0.29895
 Alpha  occ. eigenvalues --   -0.25688
 Alpha virt. eigenvalues --   -0.12074  -0.06227  -0.06183  -0.04778  -0.04697
 Alpha virt. eigenvalues --   -0.04597  -0.01492  -0.01397  -0.01334  -0.01070
 Alpha virt. eigenvalues --   -0.00901  -0.00867  -0.00816  -0.00130  -0.00054

  Beta  occ. eigenvalues -- -197.10728-129.99152-129.99134-129.99114-101.62586
  Beta  occ. eigenvalues --  -22.43156 -19.28499 -19.28482 -19.28449 -19.28375
  Beta  occ. eigenvalues --  -19.28367 -19.28348 -19.28341 -19.28339 -19.28323
  Beta  occ. eigenvalues --  -19.28234 -19.28206 -19.28122 -19.26951 -19.26912
  Beta  occ. eigenvalues --  -19.26902 -19.26897 -19.26881 -19.26878 -19.26843
  Beta  occ. eigenvalues --  -19.26838 -19.26832 -19.26816 -19.26811 -19.26798
  Beta  occ. eigenvalues --  -19.26790 -19.26786 -19.26784 -19.26783 -19.26779
  Beta  occ. eigenvalues --  -19.26768 -19.26742 -19.26723 -19.26716 -19.26708
  Beta  occ. eigenvalues --  -19.26650 -19.26612 -19.24698 -19.24626 -19.24618
  Beta  occ. eigenvalues --  -19.24593 -18.93649 -18.91435 -18.91413 -13.36561
  Beta  occ. eigenvalues --  -13.36543 -13.36512 -10.69488 -10.69483 -10.69483
  Beta  occ. eigenvalues --  -10.69469 -10.69465 -10.69465 -10.69440 -10.69436
  Beta  occ. eigenvalues --  -10.69433 -10.33038 -10.32337 -10.31710 -10.30941
  Beta  occ. eigenvalues --  -10.30932 -10.30896 -10.30398 -10.30317  -9.53041
  Beta  occ. eigenvalues --   -7.28908  -7.27436  -7.27430  -3.21055  -3.21026
  Beta  occ. eigenvalues --   -3.21026  -3.21024  -3.20997  -3.20978  -3.20972
  Beta  occ. eigenvalues --   -3.20970  -3.20958  -3.20825  -3.20801  -3.20776
  Beta  occ. eigenvalues --   -2.74666  -1.85292  -1.85260  -1.85236  -1.85208
  Beta  occ. eigenvalues --   -1.85088  -1.85044  -1.85022  -1.85002  -1.84990
  Beta  occ. eigenvalues --   -1.84984  -1.84962  -1.84895  -1.84355  -1.84243
  Beta  occ. eigenvalues --   -1.84228  -1.84223  -1.84184  -1.84176  -1.84105
  Beta  occ. eigenvalues --   -1.84092  -1.84068  -1.84058  -1.84037  -1.84024
  Beta  occ. eigenvalues --   -1.83905  -1.83878  -1.83866  -1.83859  -1.83821
  Beta  occ. eigenvalues --   -1.83787  -1.83769  -1.83764  -1.83745  -1.83646
  Beta  occ. eigenvalues --   -1.83642  -1.83627  -1.80557  -1.75819  -1.75777
  Beta  occ. eigenvalues --   -1.50260  -1.50242  -1.50212  -1.08568  -1.06938
  Beta  occ. eigenvalues --   -1.06898  -1.06869  -1.05978  -1.05969  -1.05934
  Beta  occ. eigenvalues --   -1.04548  -1.04536  -1.04535  -1.03943  -1.03928
  Beta  occ. eigenvalues --   -1.03595  -1.03298  -1.03251  -1.03238  -1.03025
  Beta  occ. eigenvalues --   -1.02995  -1.02206  -1.02189  -1.02167  -1.02042
  Beta  occ. eigenvalues --   -1.01999  -1.01963  -1.01900  -1.01868  -1.01771
  Beta  occ. eigenvalues --   -1.01729  -1.01717  -1.01604  -1.01551  -1.01520
  Beta  occ. eigenvalues --   -1.01285  -1.00760  -1.00749  -1.00704  -1.00691
  Beta  occ. eigenvalues --   -0.99837  -0.99756  -0.99716  -0.96265  -0.89825
  Beta  occ. eigenvalues --   -0.85700  -0.85681  -0.85657  -0.85548  -0.85542
  Beta  occ. eigenvalues --   -0.85531  -0.85525  -0.85506  -0.85487  -0.84531
  Beta  occ. eigenvalues --   -0.84242  -0.82651  -0.72075  -0.69619  -0.65192
  Beta  occ. eigenvalues --   -0.62279  -0.61663  -0.61622  -0.61582  -0.60705
  Beta  occ. eigenvalues --   -0.58937  -0.58933  -0.58916  -0.58776  -0.58738
  Beta  occ. eigenvalues --   -0.58712  -0.58700  -0.58641  -0.58513  -0.57311
  Beta  occ. eigenvalues --   -0.57143  -0.57102  -0.56952  -0.56840  -0.56453
  Beta  occ. eigenvalues --   -0.56379  -0.56336  -0.55786  -0.55570  -0.55315
  Beta  occ. eigenvalues --   -0.55314  -0.55298  -0.54483  -0.54157  -0.54124
  Beta  occ. eigenvalues --   -0.53943  -0.53620  -0.53585  -0.53540  -0.52736
  Beta  occ. eigenvalues --   -0.52618  -0.52557  -0.52466  -0.52429  -0.51463
  Beta  occ. eigenvalues --   -0.51430  -0.51415  -0.51304  -0.51244  -0.50834
  Beta  occ. eigenvalues --   -0.50470  -0.50443  -0.50393  -0.50303  -0.50215
  Beta  occ. eigenvalues --   -0.50160  -0.50029  -0.50009  -0.49969  -0.49687
  Beta  occ. eigenvalues --   -0.49625  -0.49606  -0.49458  -0.49426  -0.49278
  Beta  occ. eigenvalues --   -0.49216  -0.49174  -0.49059  -0.49029  -0.48936
  Beta  occ. eigenvalues --   -0.48684  -0.48542  -0.48509  -0.48446  -0.47768
  Beta  occ. eigenvalues --   -0.47634  -0.47536  -0.45891  -0.45875  -0.45780
  Beta  occ. eigenvalues --   -0.45778  -0.45655  -0.45543  -0.45184  -0.45156
  Beta  occ. eigenvalues --   -0.45133  -0.45028  -0.44823  -0.44613  -0.44452
  Beta  occ. eigenvalues --   -0.44420  -0.44391  -0.44248  -0.44191  -0.44172
  Beta  occ. eigenvalues --   -0.43397  -0.43078  -0.42489  -0.42463  -0.42390
  Beta  occ. eigenvalues --   -0.42238  -0.42117  -0.42109  -0.42099  -0.41600
  Beta  occ. eigenvalues --   -0.41587  -0.41535  -0.41296  -0.41020  -0.40925
  Beta  occ. eigenvalues --   -0.40736  -0.40704  -0.40641  -0.40374  -0.40370
  Beta  occ. eigenvalues --   -0.40304  -0.40157  -0.40138  -0.40114  -0.39793
  Beta  occ. eigenvalues --   -0.39620  -0.39332  -0.39157  -0.39102  -0.39079
  Beta  occ. eigenvalues --   -0.38891  -0.38864  -0.38817  -0.38725  -0.38676
  Beta  occ. eigenvalues --   -0.38640  -0.38302  -0.38269  -0.38238  -0.37650
  Beta  occ. eigenvalues --   -0.37186  -0.37172  -0.35686  -0.35669  -0.33784
  Beta  occ. eigenvalues --   -0.30736
  Beta virt. eigenvalues --   -0.06225  -0.06183  -0.04777  -0.04695  -0.04597
  Beta virt. eigenvalues --   -0.01489  -0.01392  -0.01329  -0.01064  -0.00895
  Beta virt. eigenvalues --   -0.00864  -0.00813  -0.00127  -0.00043  -0.00008

 Mulliken charges and spin densities:
               1          2
     1  Cl  -0.349110  -0.622663
     2  C   -0.037713  -0.080964
     3  C    0.014822   0.045804
     4  C   -0.035820  -0.077552
     5  C   -0.031005   0.049921
     6  C    0.006735  -0.098271
     7  C   -0.048879   0.049363
     8  H    0.046895   0.003448
     9  H    0.049193   0.003333
    10  H    0.053740  -0.001761
    11  H    0.054917   0.004319
    12  H    0.052695  -0.001717
    13  C    0.000011  -0.204711
    14  C   -0.027291  -0.081928
    15  H    0.072694   0.008801
    16  H    0.094375   0.004510
    17  H    0.092472   0.003720
    18  O   -0.671667  -0.000567
    19  O   -0.668372  -0.000497
    20  O   -0.665944  -0.001875
    21  O   -0.670454  -0.000524
    22  W    1.716942   0.000354
    23  W    1.655145   0.000512
    24  W    1.667380   0.000189
    25  W    1.675947   0.000190
    26  W    1.660705   0.002769
    27  W    1.708274   0.002512
    28  W    1.612844   0.003307
    29  W    1.668604   0.002915
    30  O   -0.351089  -0.000532
    31  O   -0.394734  -0.000560
    32  O   -0.394342  -0.000601
    33  O   -0.392574  -0.000552
    34  O   -0.672171  -0.000309
    35  O   -0.677200  -0.000071
    36  O   -0.669457  -0.000151
    37  O   -0.671161  -0.000236
    38  O   -0.395810   0.002068
    39  O   -0.396002   0.002084
    40  O   -0.339566  -0.001025
    41  O   -0.395837   0.002074
    42  O   -0.677097   0.000084
    43  O   -0.670647   0.000182
    44  O   -0.666840   0.000303
    45  O   -0.673518   0.000102
    46  O   -0.395998   0.002336
    47  O   -0.352687   0.002222
    48  O   -0.387476   0.001802
    49  O   -0.394749   0.002390
    50  W    1.656979   0.002798
    51  W    1.659982   0.002684
    52  W    1.672018   0.003797
    53  W    1.668142   0.002625
    54  O   -0.720560   0.000095
    55  O   -0.704277   0.000003
    56  O   -0.722173   0.000163
    57  O   -0.719052   0.000054
    58  O   -0.703029  -0.000015
    59  O   -0.722464   0.000151
    60  O   -0.721359   0.000202
    61  O   -0.717437   0.000199
    62  O   -0.721890  -0.000171
    63  O   -0.705769  -0.000010
    64  O   -0.721278  -0.000189
    65  O   -0.723641  -0.000202
    66  O   -0.882871   0.005174
    67  O   -0.883167   0.007265
    68  O   -0.881226   0.007072
    69  O   -0.888360   0.006561
    70  K    0.852265   0.000193
    71  K    0.852115   0.000215
    72  K    0.848134   0.000238
    73  V    1.199738   0.936547
 Sum of Mulliken charges =  -1.00000   0.00000

 Dipole moment (field-independent basis, Debye):
    X=             29.3605    Y=            -13.7626    Z=            -30.7208  Tot=             44.6678
 Quadrupole moment (field-independent basis, Debye-Ang):
   XX=           -780.5693   YY=           -700.6945   ZZ=           -782.3614
   XY=            132.3049   XZ=            187.5805   YZ=            -93.7845

 Normal termination of Gaussian 16 at Sun Jun  2 01:01:44 2024.
