 Gaussian 16, Revision C.01,
 Gaussian 16:  ES64L-G16RevC.01  3-Jul-2019

 ----------------------------------------------------------------------
 # def2svp wb97xd scrf=(smd,solvent=acetonitrile) g09default scf=(xqc,m
 axcycle=64) force guess=read nosymm
 ----------------------------------------------------------------------

 ----------
 Title Card
 ----------
 Symbolic Z-matrix:
 Charge = -1 Multiplicity = 1

                          Input orientation:
 ---------------------------------------------------------------------
 Center     Atomic      Atomic             Coordinates (Angstroms)
 Number     Number       Type             X           Y           Z
 ---------------------------------------------------------------------
      1         17           0       -9.974363    7.977874   10.489624
      2          6           0       -8.311383    4.238067   12.232101
      3          6           0       -9.076299    3.916234   11.096213
      4          6           0      -10.009327    2.868911   11.198986
      5          6           0      -10.188286    2.181782   12.395102
      6          6           0       -9.429218    2.520325   13.515546
      7          6           0       -8.486930    3.547030   13.426743
      8          1           0       -7.571245    5.039886   12.185865
      9          1           0      -10.601200    2.596703   10.320355
     10          1           0      -10.924960    1.377235   12.455300
     11          1           0       -9.565712    1.981402   14.455321
     12          1           0       -7.890391    3.817279   14.301546
     13          6           0       -8.947291    4.628831    9.824067
     14          6           0       -8.133890    5.670872    9.572732
     15          1           0       -9.588730    4.259762    9.016597
     16          1           0       -8.089053    6.115685    8.577360
     17          1           0       -7.422040    6.053208   10.307821
     18          8           0       -1.007069   -1.762426    7.457012
     19          8           0       -8.412375   -1.328525    7.461890
     20          8           0       -7.051506    1.345948   10.487887
     21          8           0       -2.332482   -4.355927   10.561516
     22         74           0       -3.420761    0.735231    6.490492
     23         74           0       -6.010818   -3.828943    6.580925
     24         74           0       -3.630918    0.915345   11.411810
     25         74           0       -5.778671   -3.867028   11.472569
     26         74           0       -2.468319   -2.550658    6.383755
     27         74           0       -6.943809   -0.537440    6.352604
     28         74           0       -6.825519   -0.249640   11.587734
     29         74           0       -2.572233   -2.696527   11.626335
     30          8           0       -3.189098    1.933640    5.323879
     31          8           0       -6.149181   -5.077891    5.437605
     32          8           0       -2.717448    1.769636   12.562402
     33          8           0       -6.683227   -4.685839   12.654885
     34          8           0       -2.691457   -0.871111    5.584735
     35          8           0       -6.718315   -2.271520    5.627502
     36          8           0       -5.322445    0.566716   12.367300
     37          8           0       -4.064549   -3.514438   12.410975
     38          8           0        0.295243    0.000966    9.269104
     39          8           0       -9.717784   -3.020423    9.323829
     40          8           0       -6.384905    3.417659    8.644374
     41          8           0       -2.970377   -6.454516    8.755457
     42          8           0       -1.805691    0.779178    7.478852
     43          8           0       -7.613611   -3.877254    7.556450
     44          8           0       -4.531591    2.219877   10.429775
     45          8           0       -4.863838   -5.213707   10.525316
     46          8           0       -1.630618   -3.476238    5.230331
     47          8           0       -7.834418    0.261246    5.161339
     48          8           0       -8.039710   -0.161414   12.770349
     49          8           0       -1.337157   -2.822017   12.786595
     50         74           0       -1.266016   -0.516957    8.841004
     51         74           0       -8.157949   -2.511908    8.878390
     52         74           0       -5.920828    1.849624    9.046579
     53         74           0       -3.470943   -4.883978    9.169130
     54          8           0       -4.237562   -3.091888    6.069494
     55          8           0       -5.173342   -0.034024    6.008215
     56          8           0       -6.183786   -1.999244   11.922288
     57          8           0       -3.186338   -0.952330   11.935075
     58          8           0       -4.383508    1.586732    7.849531
     59          8           0       -5.007591   -4.675071    7.926236
     60          8           0       -2.341531    0.600381   10.081345
     61          8           0       -7.066512   -3.611751   10.139198
     62          8           0       -2.579770   -3.872353    7.860947
     63          8           0       -6.838888    0.784542    7.805367
     64          8           0       -7.842938   -1.173354   10.156452
     65          8           0       -1.575641   -1.837796   10.148937
     66          8           0       -3.381973   -1.131717    8.011619
     67          8           0       -6.034119   -1.950461    8.038903
     68          8           0       -5.134496   -0.196656    9.952180
     69          8           0       -4.250095   -2.824814    9.980165
     70         19           0       -3.229699   -6.128894    5.658571
     71         19           0       -0.138695    0.045724   12.355850
     72         19           0       -9.278625   -2.923059   12.420716
     73         23           0       -4.702957   -1.522199    8.992825
 ---------------------------------------------------------------------

 SCF Done:  E(RwB97XD) =  -7327.70037062     A.U. after   11 cycles

 Alpha  occ. eigenvalues -- -197.29340-130.00160-130.00139-130.00059-101.47600
 Alpha  occ. eigenvalues --  -22.62471 -19.33583 -19.33574 -19.33569 -19.33545
 Alpha  occ. eigenvalues --  -19.30698 -19.30671 -19.30661 -19.30656 -19.30647
 Alpha  occ. eigenvalues --  -19.30643 -19.30618 -19.30579 -19.30495 -19.30304
 Alpha  occ. eigenvalues --  -19.30287 -19.30037 -19.29326 -19.29321 -19.29290
 Alpha  occ. eigenvalues --  -19.29282 -19.29279 -19.29270 -19.29259 -19.29203
 Alpha  occ. eigenvalues --  -19.29182 -19.29162 -19.29147 -19.29130 -19.29113
 Alpha  occ. eigenvalues --  -19.29102 -19.29097 -19.29088 -19.29074 -19.29066
 Alpha  occ. eigenvalues --  -19.29037 -19.28979 -19.28955 -19.28949 -19.28920
 Alpha  occ. eigenvalues --  -19.28737 -19.11427 -19.11418 -19.11409 -13.37563
 Alpha  occ. eigenvalues --  -13.37542 -13.37451 -10.70492 -10.70485 -10.70485
 Alpha  occ. eigenvalues --  -10.70471 -10.70464 -10.70464 -10.70381 -10.70374
 Alpha  occ. eigenvalues --  -10.70372 -10.29797 -10.29317 -10.29259 -10.29062
 Alpha  occ. eigenvalues --  -10.28969 -10.28968 -10.28114 -10.27591  -9.38056
 Alpha  occ. eigenvalues --   -7.12877  -7.12839  -7.12837  -3.23278  -3.23266
 Alpha  occ. eigenvalues --   -3.23257  -3.23255  -3.23246  -3.23236  -3.23180
 Alpha  occ. eigenvalues --   -3.23178  -3.23134  -3.22904  -3.22899  -3.22640
 Alpha  occ. eigenvalues --   -2.91732  -1.94117  -1.94088  -1.94075  -1.87688
 Alpha  occ. eigenvalues --   -1.87628  -1.87604  -1.87543  -1.87458  -1.87441
 Alpha  occ. eigenvalues --   -1.87433  -1.87396  -1.87350  -1.87214  -1.87185
 Alpha  occ. eigenvalues --   -1.86979  -1.86590  -1.86470  -1.86464  -1.86437
 Alpha  occ. eigenvalues --   -1.86417  -1.86372  -1.86302  -1.86287  -1.86264
 Alpha  occ. eigenvalues --   -1.86248  -1.86220  -1.86188  -1.86109  -1.86086
 Alpha  occ. eigenvalues --   -1.86080  -1.86050  -1.86008  -1.85954  -1.85935
 Alpha  occ. eigenvalues --   -1.85875  -1.85840  -1.85747  -1.85612  -1.85543
 Alpha  occ. eigenvalues --   -1.51247  -1.51226  -1.51136  -1.12992  -1.11226
 Alpha  occ. eigenvalues --   -1.11135  -1.11125  -1.08918  -1.08492  -1.08438
 Alpha  occ. eigenvalues --   -1.08263  -1.07516  -1.07462  -1.07435  -1.06864
 Alpha  occ. eigenvalues --   -1.06839  -1.06807  -1.06271  -1.06233  -1.05296
 Alpha  occ. eigenvalues --   -1.05291  -1.04943  -1.04934  -1.04906  -1.04177
 Alpha  occ. eigenvalues --   -1.04173  -1.04139  -1.03996  -1.03979  -1.03965
 Alpha  occ. eigenvalues --   -1.03915  -1.03856  -1.03839  -1.03724  -1.03676
 Alpha  occ. eigenvalues --   -1.03590  -1.03534  -1.03250  -1.03220  -1.03094
 Alpha  occ. eigenvalues --   -1.03078  -1.03016  -1.02881  -0.94390  -0.86710
 Alpha  occ. eigenvalues --   -0.86690  -0.86605  -0.86540  -0.86522  -0.86517
 Alpha  occ. eigenvalues --   -0.86501  -0.86494  -0.86416  -0.86398  -0.82817
 Alpha  occ. eigenvalues --   -0.79784  -0.70757  -0.69782  -0.68026  -0.64545
 Alpha  occ. eigenvalues --   -0.63911  -0.63854  -0.63838  -0.63254  -0.63225
 Alpha  occ. eigenvalues --   -0.63121  -0.63037  -0.62625  -0.62556  -0.61919
 Alpha  occ. eigenvalues --   -0.61563  -0.61543  -0.61452  -0.61189  -0.61172
 Alpha  occ. eigenvalues --   -0.61131  -0.60373  -0.59410  -0.59397  -0.59387
 Alpha  occ. eigenvalues --   -0.59341  -0.59315  -0.58686  -0.57958  -0.57927
 Alpha  occ. eigenvalues --   -0.57860  -0.57026  -0.56991  -0.56955  -0.56244
 Alpha  occ. eigenvalues --   -0.56201  -0.56054  -0.55666  -0.54820  -0.54768
 Alpha  occ. eigenvalues --   -0.54724  -0.54574  -0.54204  -0.54094  -0.54042
 Alpha  occ. eigenvalues --   -0.54000  -0.53910  -0.53233  -0.53178  -0.53058
 Alpha  occ. eigenvalues --   -0.52980  -0.52870  -0.52693  -0.52643  -0.52601
 Alpha  occ. eigenvalues --   -0.52553  -0.52498  -0.52438  -0.52415  -0.51551
 Alpha  occ. eigenvalues --   -0.51527  -0.51349  -0.51304  -0.51281  -0.51221
 Alpha  occ. eigenvalues --   -0.51148  -0.51108  -0.51011  -0.50739  -0.50557
 Alpha  occ. eigenvalues --   -0.50552  -0.50524  -0.49884  -0.49878  -0.49270
 Alpha  occ. eigenvalues --   -0.49247  -0.49224  -0.49172  -0.49128  -0.49032
 Alpha  occ. eigenvalues --   -0.48864  -0.48050  -0.47998  -0.47883  -0.47671
 Alpha  occ. eigenvalues --   -0.47329  -0.47271  -0.47213  -0.46982  -0.46938
 Alpha  occ. eigenvalues --   -0.46823  -0.46550  -0.46521  -0.46418  -0.46182
 Alpha  occ. eigenvalues --   -0.46117  -0.46060  -0.45599  -0.45062  -0.44884
 Alpha  occ. eigenvalues --   -0.44850  -0.44150  -0.44126  -0.43987  -0.43562
 Alpha  occ. eigenvalues --   -0.43284  -0.43223  -0.43096  -0.43075  -0.43033
 Alpha  occ. eigenvalues --   -0.42704  -0.42678  -0.42641  -0.42574  -0.42565
 Alpha  occ. eigenvalues --   -0.42488  -0.42438  -0.42428  -0.42269  -0.42258
 Alpha  occ. eigenvalues --   -0.42223  -0.42002  -0.41881  -0.41822  -0.41808
 Alpha  occ. eigenvalues --   -0.41201  -0.41193  -0.41144  -0.41041  -0.40536
 Alpha  occ. eigenvalues --   -0.40525  -0.40501  -0.40393  -0.39419  -0.39393
 Alpha  occ. eigenvalues --   -0.36850  -0.32536  -0.28795  -0.24511  -0.24480
 Alpha  occ. eigenvalues --   -0.23195
 Alpha virt. eigenvalues --   -0.09366  -0.09166  -0.08342  -0.08289  -0.06916
 Alpha virt. eigenvalues --   -0.06849  -0.06764  -0.04370  -0.04081  -0.04050
 Alpha virt. eigenvalues --   -0.03663  -0.03497  -0.03412  -0.03176  -0.03055

 Mulliken charges:
               1
     1  Cl  -0.931644
     2  C   -0.078888
     3  C    0.040280
     4  C   -0.076307
     5  C   -0.033166
     6  C   -0.030926
     7  C   -0.050248
     8  H    0.028357
     9  H    0.029881
    10  H    0.040368
    11  H    0.036739
    12  H    0.039369
    13  C   -0.089654
    14  C    0.017129
    15  H    0.019467
    16  H    0.039692
    17  H    0.037187
    18  O   -0.662971
    19  O   -0.659497
    20  O   -0.654810
    21  O   -0.661462
    22  W    1.733882
    23  W    1.669627
    24  W    1.679777
    25  W    1.689980
    26  W    1.674744
    27  W    1.726219
    28  W    1.621158
    29  W    1.682843
    30  O   -0.321625
    31  O   -0.366016
    32  O   -0.365950
    33  O   -0.363555
    34  O   -0.663931
    35  O   -0.669977
    36  O   -0.660731
    37  O   -0.662431
    38  O   -0.366170
    39  O   -0.366214
    40  O   -0.293244
    41  O   -0.365446
    42  O   -0.669575
    43  O   -0.662262
    44  O   -0.658386
    45  O   -0.665378
    46  O   -0.366031
    47  O   -0.321187
    48  O   -0.354727
    49  O   -0.364338
    50  W    1.671368
    51  W    1.674365
    52  W    1.677239
    53  W    1.682678
    54  O   -0.722790
    55  O   -0.706050
    56  O   -0.725699
    57  O   -0.721003
    58  O   -0.706107
    59  O   -0.725413
    60  O   -0.724067
    61  O   -0.719922
    62  O   -0.723729
    63  O   -0.707779
    64  O   -0.722370
    65  O   -0.725850
    66  O   -0.800975
    67  O   -0.800457
    68  O   -0.798521
    69  O   -0.808991
    70  K    0.866148
    71  K    0.865882
    72  K    0.862276
    73  V    1.189814
 Sum of Mulliken charges =  -1.00000

 Dipole moment (field-independent basis, Debye):
    X=             51.9830    Y=            -50.9653    Z=            -38.4899  Tot=             82.3478
 Quadrupole moment (field-independent basis, Debye-Ang):
   XX=          -1074.3501   YY=           -873.2284   ZZ=           -909.8564
   XY=            456.4440   XZ=            465.5913   YZ=           -473.7476

 Normal termination of Gaussian 16 at Sun Jun  2 01:48:05 2024.
