 Gaussian 16, Revision C.01,
 Gaussian 16:  ES64L-G16RevC.01  3-Jul-2019

 ----------------------------------------------------------------------
 # def2svp wb97xd scrf=(smd,solvent=acetonitrile) g09default scf=(xqc,m
 axcycle=64) force guess=read nosymm
 ----------------------------------------------------------------------

 ----------
 Title Card
 ----------
 Symbolic Z-matrix:
 Charge = -1 Multiplicity = 1

                          Input orientation:
 ---------------------------------------------------------------------
 Center     Atomic      Atomic             Coordinates (Angstroms)
 Number     Number       Type             X           Y           Z
 ---------------------------------------------------------------------
      1         17           0       -9.974363    7.977874   10.489624
      2          6           0       -8.311383    4.238067   12.232101
      3          6           0       -9.076299    3.916234   11.096213
      4          6           0      -10.009327    2.868911   11.198986
      5          6           0      -10.188286    2.181782   12.395102
      6          6           0       -9.429218    2.520325   13.515546
      7          6           0       -8.486930    3.547030   13.426743
      8          1           0       -7.571245    5.039886   12.185865
      9          1           0      -10.601200    2.596703   10.320355
     10          1           0      -10.924960    1.377235   12.455300
     11          1           0       -9.565712    1.981402   14.455321
     12          1           0       -7.890391    3.817279   14.301546
     13          6           0       -8.947291    4.628831    9.824067
     14          6           0       -8.133890    5.670872    9.572732
     15          1           0       -9.588730    4.259762    9.016597
     16          1           0       -8.089053    6.115685    8.577360
     17          1           0       -7.422040    6.053208   10.307821
     18          8           0       -1.007069   -1.762426    7.457012
     19          8           0       -8.412375   -1.328525    7.461890
     20          8           0       -7.051506    1.345948   10.487887
     21          8           0       -2.332482   -4.355927   10.561516
     22         74           0       -3.420761    0.735231    6.490492
     23         74           0       -6.010818   -3.828943    6.580925
     24         74           0       -3.630918    0.915345   11.411810
     25         74           0       -5.778671   -3.867028   11.472569
     26         74           0       -2.468319   -2.550658    6.383755
     27         74           0       -6.943809   -0.537440    6.352604
     28         74           0       -6.825519   -0.249640   11.587734
     29         74           0       -2.572233   -2.696527   11.626335
     30          8           0       -3.189098    1.933640    5.323879
     31          8           0       -6.149181   -5.077891    5.437605
     32          8           0       -2.717448    1.769636   12.562402
     33          8           0       -6.683227   -4.685839   12.654885
     34          8           0       -2.691457   -0.871111    5.584735
     35          8           0       -6.718315   -2.271520    5.627502
     36          8           0       -5.322445    0.566716   12.367300
     37          8           0       -4.064549   -3.514438   12.410975
     38          8           0        0.295243    0.000966    9.269104
     39          8           0       -9.717784   -3.020423    9.323829
     40          8           0       -6.384905    3.417659    8.644374
     41          8           0       -2.970377   -6.454516    8.755457
     42          8           0       -1.805691    0.779178    7.478852
     43          8           0       -7.613611   -3.877254    7.556450
     44          8           0       -4.531591    2.219877   10.429775
     45          8           0       -4.863838   -5.213707   10.525316
     46          8           0       -1.630618   -3.476238    5.230331
     47          8           0       -7.834418    0.261246    5.161339
     48          8           0       -8.039710   -0.161414   12.770349
     49          8           0       -1.337157   -2.822017   12.786595
     50         74           0       -1.266016   -0.516957    8.841004
     51         74           0       -8.157949   -2.511908    8.878390
     52         74           0       -5.920828    1.849624    9.046579
     53         74           0       -3.470943   -4.883978    9.169130
     54          8           0       -4.237562   -3.091888    6.069494
     55          8           0       -5.173342   -0.034024    6.008215
     56          8           0       -6.183786   -1.999244   11.922288
     57          8           0       -3.186338   -0.952330   11.935075
     58          8           0       -4.383508    1.586732    7.849531
     59          8           0       -5.007591   -4.675071    7.926236
     60          8           0       -2.341531    0.600381   10.081345
     61          8           0       -7.066512   -3.611751   10.139198
     62          8           0       -2.579770   -3.872353    7.860947
     63          8           0       -6.838888    0.784542    7.805367
     64          8           0       -7.842938   -1.173354   10.156452
     65          8           0       -1.575641   -1.837796   10.148937
     66          8           0       -3.381973   -1.131717    8.011619
     67          8           0       -6.034119   -1.950461    8.038903
     68          8           0       -5.134496   -0.196656    9.952180
     69          8           0       -4.250095   -2.824814    9.980165
     70         19           0       -3.229699   -6.128894    5.658571
     71         19           0       -0.138695    0.045724   12.355850
     72         19           0       -9.278625   -2.923059   12.420716
     73         23           0       -4.702957   -1.522199    8.992825
 ---------------------------------------------------------------------

 SCF Done:  E(UwB97XD) =  -7327.70046511     A.U. after   35 cycles

 Alpha  occ. eigenvalues --  -19.24651 -18.94060 -18.92957 -18.92949 -13.36574
 Alpha  occ. eigenvalues --  -13.36555 -13.36524 -10.69501 -10.69497 -10.69496
 Alpha  occ. eigenvalues --  -10.69482 -10.69477 -10.69477 -10.69452 -10.69448
 Alpha  occ. eigenvalues --  -10.69445 -10.32799 -10.32155 -10.31749 -10.30851
 Alpha  occ. eigenvalues --  -10.30828 -10.30811 -10.30447 -10.30367  -9.52620
 Alpha  occ. eigenvalues --   -7.27504  -7.27159  -7.27153  -3.21054  -3.21031
 Alpha  occ. eigenvalues --   -3.21026  -3.21021  -3.21002  -3.20980  -3.20978
 Alpha  occ. eigenvalues --   -3.20972  -3.20964  -3.20827  -3.20803  -3.20782
 Alpha  occ. eigenvalues --   -2.78780  -1.85298  -1.85268  -1.85244  -1.85217
 Alpha  occ. eigenvalues --   -1.85094  -1.85051  -1.85028  -1.85010  -1.84997
 Alpha  occ. eigenvalues --   -1.84991  -1.84964  -1.84903  -1.84356  -1.84244
 Alpha  occ. eigenvalues --   -1.84229  -1.84225  -1.84185  -1.84178  -1.84107
 Alpha  occ. eigenvalues --   -1.84093  -1.84071  -1.84060  -1.84039  -1.84026
 Alpha  occ. eigenvalues --   -1.83906  -1.83880  -1.83864  -1.83859  -1.83823
 Alpha  occ. eigenvalues --   -1.83789  -1.83769  -1.83766  -1.83748  -1.83648
 Alpha  occ. eigenvalues --   -1.83644  -1.83630  -1.81941  -1.81598  -1.81589
 Alpha  occ. eigenvalues --   -1.50273  -1.50253  -1.50223  -1.08592  -1.06964
 Alpha  occ. eigenvalues --   -1.06926  -1.06899  -1.05982  -1.05972  -1.05937
 Alpha  occ. eigenvalues --   -1.04549  -1.04538  -1.04537  -1.03946  -1.03930
 Alpha  occ. eigenvalues --   -1.03680  -1.03337  -1.03294  -1.03277  -1.03026
 Alpha  occ. eigenvalues --   -1.03001  -1.02234  -1.02221  -1.02190  -1.02050
 Alpha  occ. eigenvalues --   -1.02006  -1.01977  -1.01904  -1.01878  -1.01774
 Alpha  occ. eigenvalues --   -1.01732  -1.01720  -1.01603  -1.01552  -1.01534
 Alpha  occ. eigenvalues --   -1.01285  -1.00798  -1.00752  -1.00704  -1.00692
 Alpha  occ. eigenvalues --   -0.99987  -0.99918  -0.99857  -0.96069  -0.89174
 Alpha  occ. eigenvalues --   -0.85711  -0.85692  -0.85667  -0.85560  -0.85554
 Alpha  occ. eigenvalues --   -0.85542  -0.85536  -0.85517  -0.85497  -0.84161
 Alpha  occ. eigenvalues --   -0.82257  -0.81009  -0.71818  -0.69511  -0.64960
 Alpha  occ. eigenvalues --   -0.62281  -0.61664  -0.61624  -0.61585  -0.60522
 Alpha  occ. eigenvalues --   -0.58941  -0.58935  -0.58917  -0.58863  -0.58793
 Alpha  occ. eigenvalues --   -0.58734  -0.58726  -0.58675  -0.58517  -0.57346
 Alpha  occ. eigenvalues --   -0.57313  -0.57283  -0.56997  -0.56674  -0.56457
 Alpha  occ. eigenvalues --   -0.56415  -0.56376  -0.55989  -0.55841  -0.55342
 Alpha  occ. eigenvalues --   -0.55338  -0.55304  -0.54317  -0.54165  -0.54137
 Alpha  occ. eigenvalues --   -0.53956  -0.53660  -0.53614  -0.53590  -0.52686
 Alpha  occ. eigenvalues --   -0.52593  -0.52570  -0.52482  -0.52436  -0.51472
 Alpha  occ. eigenvalues --   -0.51459  -0.51439  -0.51364  -0.51309  -0.50671
 Alpha  occ. eigenvalues --   -0.50544  -0.50510  -0.50452  -0.50355  -0.50256
 Alpha  occ. eigenvalues --   -0.50216  -0.50059  -0.50008  -0.49998  -0.49738
 Alpha  occ. eigenvalues --   -0.49644  -0.49624  -0.49471  -0.49440  -0.49280
 Alpha  occ. eigenvalues --   -0.49246  -0.49178  -0.49091  -0.49050  -0.48967
 Alpha  occ. eigenvalues --   -0.48684  -0.48529  -0.48506  -0.48447  -0.47682
 Alpha  occ. eigenvalues --   -0.47658  -0.47115  -0.46457  -0.46024  -0.46003
 Alpha  occ. eigenvalues --   -0.45853  -0.45742  -0.45673  -0.45580  -0.45184
 Alpha  occ. eigenvalues --   -0.45141  -0.45131  -0.44821  -0.44611  -0.44472
 Alpha  occ. eigenvalues --   -0.44448  -0.44438  -0.44255  -0.44220  -0.44201
 Alpha  occ. eigenvalues --   -0.43416  -0.42986  -0.42544  -0.42495  -0.42440
 Alpha  occ. eigenvalues --   -0.42296  -0.42160  -0.42146  -0.42048  -0.41625
 Alpha  occ. eigenvalues --   -0.41602  -0.41555  -0.41018  -0.40973  -0.40786
 Alpha  occ. eigenvalues --   -0.40742  -0.40736  -0.40390  -0.40381  -0.40330
 Alpha  occ. eigenvalues --   -0.40207  -0.40171  -0.40149  -0.40125  -0.39851
 Alpha  occ. eigenvalues --   -0.39336  -0.39264  -0.39241  -0.39139  -0.39032
 Alpha  occ. eigenvalues --   -0.38928  -0.38894  -0.38825  -0.38742  -0.38697
 Alpha  occ. eigenvalues --   -0.38304  -0.38276  -0.38243  -0.37811  -0.37186
 Alpha  occ. eigenvalues --   -0.37178  -0.34753  -0.34735  -0.33550  -0.29876
 Alpha  occ. eigenvalues --   -0.25743
 Alpha virt. eigenvalues --   -0.12122  -0.06229  -0.06186  -0.04781  -0.04698
 Alpha virt. eigenvalues --   -0.04600  -0.01494  -0.01397  -0.01332  -0.01071
 Alpha virt. eigenvalues --   -0.00902  -0.00866  -0.00815  -0.00127  -0.00056

  Beta  occ. eigenvalues -- -197.10798-129.99165-129.99146-129.99126-101.62623
  Beta  occ. eigenvalues --  -22.43222 -19.28502 -19.28489 -19.28453 -19.28373
  Beta  occ. eigenvalues --  -19.28364 -19.28348 -19.28344 -19.28334 -19.28323
  Beta  occ. eigenvalues --  -19.28231 -19.28199 -19.28120 -19.26948 -19.26910
  Beta  occ. eigenvalues --  -19.26899 -19.26894 -19.26878 -19.26877 -19.26842
  Beta  occ. eigenvalues --  -19.26837 -19.26830 -19.26812 -19.26807 -19.26797
  Beta  occ. eigenvalues --  -19.26789 -19.26786 -19.26785 -19.26779 -19.26774
  Beta  occ. eigenvalues --  -19.26764 -19.26734 -19.26722 -19.26713 -19.26711
  Beta  occ. eigenvalues --  -19.26651 -19.26610 -19.24720 -19.24663 -19.24651
  Beta  occ. eigenvalues --  -19.24626 -18.93715 -18.91495 -18.91485 -13.36574
  Beta  occ. eigenvalues --  -13.36555 -13.36524 -10.69501 -10.69497 -10.69496
  Beta  occ. eigenvalues --  -10.69482 -10.69477 -10.69477 -10.69452 -10.69448
  Beta  occ. eigenvalues --  -10.69445 -10.33030 -10.32322 -10.31708 -10.30938
  Beta  occ. eigenvalues --  -10.30932 -10.30895 -10.30398 -10.30317  -9.53079
  Beta  occ. eigenvalues --   -7.28949  -7.27473  -7.27467  -3.21054  -3.21026
  Beta  occ. eigenvalues --   -3.21025  -3.21020  -3.20996  -3.20974  -3.20972
  Beta  occ. eigenvalues --   -3.20966  -3.20958  -3.20827  -3.20800  -3.20776
  Beta  occ. eigenvalues --   -2.74717  -1.85293  -1.85262  -1.85240  -1.85208
  Beta  occ. eigenvalues --   -1.85089  -1.85046  -1.85021  -1.85002  -1.84989
  Beta  occ. eigenvalues --   -1.84984  -1.84960  -1.84895  -1.84353  -1.84241
  Beta  occ. eigenvalues --   -1.84227  -1.84221  -1.84182  -1.84175  -1.84105
  Beta  occ. eigenvalues --   -1.84091  -1.84068  -1.84057  -1.84036  -1.84022
  Beta  occ. eigenvalues --   -1.83904  -1.83877  -1.83862  -1.83856  -1.83820
  Beta  occ. eigenvalues --   -1.83786  -1.83766  -1.83763  -1.83745  -1.83646
  Beta  occ. eigenvalues --   -1.83641  -1.83627  -1.80603  -1.75851  -1.75836
  Beta  occ. eigenvalues --   -1.50273  -1.50253  -1.50223  -1.08575  -1.06945
  Beta  occ. eigenvalues --   -1.06904  -1.06873  -1.05981  -1.05970  -1.05936
  Beta  occ. eigenvalues --   -1.04549  -1.04540  -1.04536  -1.03945  -1.03932
  Beta  occ. eigenvalues --   -1.03614  -1.03304  -1.03258  -1.03244  -1.03025
  Beta  occ. eigenvalues --   -1.02994  -1.02215  -1.02196  -1.02174  -1.02042
  Beta  occ. eigenvalues --   -1.02001  -1.01963  -1.01900  -1.01867  -1.01770
  Beta  occ. eigenvalues --   -1.01729  -1.01717  -1.01604  -1.01549  -1.01519
  Beta  occ. eigenvalues --   -1.01285  -1.00763  -1.00750  -1.00703  -1.00691
  Beta  occ. eigenvalues --   -0.99854  -0.99778  -0.99737  -0.96267  -0.89811
  Beta  occ. eigenvalues --   -0.85711  -0.85692  -0.85667  -0.85560  -0.85554
  Beta  occ. eigenvalues --   -0.85541  -0.85536  -0.85517  -0.85497  -0.84562
  Beta  occ. eigenvalues --   -0.84245  -0.82646  -0.72070  -0.69621  -0.65188
  Beta  occ. eigenvalues --   -0.62281  -0.61664  -0.61624  -0.61584  -0.60702
  Beta  occ. eigenvalues --   -0.58936  -0.58933  -0.58915  -0.58778  -0.58743
  Beta  occ. eigenvalues --   -0.58715  -0.58703  -0.58643  -0.58517  -0.57323
  Beta  occ. eigenvalues --   -0.57157  -0.57115  -0.56959  -0.56837  -0.56459
  Beta  occ. eigenvalues --   -0.56384  -0.56341  -0.55797  -0.55581  -0.55323
  Beta  occ. eigenvalues --   -0.55320  -0.55305  -0.54480  -0.54161  -0.54127
  Beta  occ. eigenvalues --   -0.53944  -0.53628  -0.53594  -0.53550  -0.52733
  Beta  occ. eigenvalues --   -0.52619  -0.52558  -0.52464  -0.52428  -0.51465
  Beta  occ. eigenvalues --   -0.51431  -0.51417  -0.51304  -0.51243  -0.50829
  Beta  occ. eigenvalues --   -0.50472  -0.50447  -0.50394  -0.50305  -0.50215
  Beta  occ. eigenvalues --   -0.50159  -0.50028  -0.50006  -0.49969  -0.49684
  Beta  occ. eigenvalues --   -0.49621  -0.49603  -0.49463  -0.49430  -0.49282
  Beta  occ. eigenvalues --   -0.49223  -0.49179  -0.49062  -0.49034  -0.48943
  Beta  occ. eigenvalues --   -0.48677  -0.48537  -0.48504  -0.48437  -0.47769
  Beta  occ. eigenvalues --   -0.47632  -0.47536  -0.45894  -0.45879  -0.45784
  Beta  occ. eigenvalues --   -0.45781  -0.45658  -0.45545  -0.45185  -0.45159
  Beta  occ. eigenvalues --   -0.45136  -0.45033  -0.44821  -0.44611  -0.44454
  Beta  occ. eigenvalues --   -0.44420  -0.44394  -0.44252  -0.44192  -0.44172
  Beta  occ. eigenvalues --   -0.43410  -0.43073  -0.42494  -0.42467  -0.42394
  Beta  occ. eigenvalues --   -0.42242  -0.42121  -0.42113  -0.42106  -0.41603
  Beta  occ. eigenvalues --   -0.41591  -0.41539  -0.41290  -0.41022  -0.40924
  Beta  occ. eigenvalues --   -0.40740  -0.40708  -0.40641  -0.40373  -0.40368
  Beta  occ. eigenvalues --   -0.40303  -0.40158  -0.40136  -0.40115  -0.39794
  Beta  occ. eigenvalues --   -0.39625  -0.39337  -0.39161  -0.39107  -0.39083
  Beta  occ. eigenvalues --   -0.38895  -0.38868  -0.38825  -0.38740  -0.38689
  Beta  occ. eigenvalues --   -0.38654  -0.38303  -0.38270  -0.38239  -0.37683
  Beta  occ. eigenvalues --   -0.37188  -0.37173  -0.35714  -0.35698  -0.33786
  Beta  occ. eigenvalues --   -0.30741
  Beta virt. eigenvalues --   -0.06228  -0.06187  -0.04780  -0.04697  -0.04599
  Beta virt. eigenvalues --   -0.01491  -0.01392  -0.01327  -0.01066  -0.00896
  Beta virt. eigenvalues --   -0.00862  -0.00812  -0.00123  -0.00044  -0.00007

 Mulliken charges and spin densities:
               1          2
     1  Cl  -0.347784  -0.624300
     2  C   -0.037746  -0.080794
     3  C    0.014840   0.045410
     4  C   -0.035952  -0.077315
     5  C   -0.030959   0.049774
     6  C    0.006643  -0.098218
     7  C   -0.048797   0.049286
     8  H    0.046940   0.003445
     9  H    0.049309   0.003326
    10  H    0.053824  -0.001755
    11  H    0.054917   0.004318
    12  H    0.052701  -0.001714
    13  C    0.000041  -0.203939
    14  C   -0.028229  -0.080786
    15  H    0.072531   0.008760
    16  H    0.094344   0.004462
    17  H    0.092135   0.003642
    18  O   -0.671710  -0.000568
    19  O   -0.668365  -0.000498
    20  O   -0.665861  -0.001865
    21  O   -0.670480  -0.000524
    22  W    1.717224   0.000355
    23  W    1.655248   0.000510
    24  W    1.667461   0.000189
    25  W    1.676015   0.000190
    26  W    1.660997   0.002757
    27  W    1.708582   0.002504
    28  W    1.612942   0.003293
    29  W    1.668627   0.002901
    30  O   -0.351256  -0.000534
    31  O   -0.394295  -0.000559
    32  O   -0.394136  -0.000602
    33  O   -0.392113  -0.000552
    34  O   -0.672275  -0.000310
    35  O   -0.677243  -0.000074
    36  O   -0.669562  -0.000150
    37  O   -0.671305  -0.000236
    38  O   -0.395929   0.002057
    39  O   -0.396180   0.002074
    40  O   -0.339724  -0.001007
    41  O   -0.395421   0.002057
    42  O   -0.677110   0.000087
    43  O   -0.670788   0.000183
    44  O   -0.666972   0.000306
    45  O   -0.673631   0.000105
    46  O   -0.395983   0.002338
    47  O   -0.352708   0.002226
    48  O   -0.387529   0.001806
    49  O   -0.394375   0.002390
    50  W    1.657193   0.002777
    51  W    1.660172   0.002664
    52  W    1.672577   0.003779
    53  W    1.668168   0.002597
    54  O   -0.720745   0.000093
    55  O   -0.704552   0.000002
    56  O   -0.722314   0.000161
    57  O   -0.719213   0.000053
    58  O   -0.703396  -0.000014
    59  O   -0.722658   0.000149
    60  O   -0.721555   0.000201
    61  O   -0.717639   0.000197
    62  O   -0.722132  -0.000170
    63  O   -0.706088  -0.000009
    64  O   -0.721506  -0.000188
    65  O   -0.723791  -0.000201
    66  O   -0.883372   0.005138
    67  O   -0.883505   0.007221
    68  O   -0.881695   0.007062
    69  O   -0.888537   0.006548
    70  K    0.852626   0.000191
    71  K    0.852545   0.000212
    72  K    0.848565   0.000236
    73  V    1.199945   0.936852
 Sum of Mulliken charges =  -1.00000  -0.00000

 Dipole moment (field-independent basis, Debye):
    X=             29.3495    Y=            -13.7919    Z=            -30.7016  Tot=             44.6565
 Quadrupole moment (field-independent basis, Debye-Ang):
   XX=           -780.2028   YY=           -700.7382   ZZ=           -781.9032
   XY=            132.3699   XZ=            187.3587   YZ=            -93.9947

 Normal termination of Gaussian 16 at Sun Jun  2 01:37:42 2024.
