 Gaussian 16, Revision C.01,
 Gaussian 16:  ES64L-G16RevC.01  3-Jul-2019

 ----------------------------------------------------------------------
 # def2svp wb97xd scrf=(smd,solvent=acetonitrile) g09default scf=(xqc,m
 axcycle=64) force guess=read nosymm
 ----------------------------------------------------------------------

 ----------
 Title Card
 ----------
 Symbolic Z-matrix:
 Charge = -1 Multiplicity = 1

                          Input orientation:
 ---------------------------------------------------------------------
 Center     Atomic      Atomic             Coordinates (Angstroms)
 Number     Number       Type             X           Y           Z
 ---------------------------------------------------------------------
      1         17           0       -9.969666    7.993965   10.494023
      2          6           0       -8.312309    4.237852   12.231747
      3          6           0       -9.078423    3.916202   11.096522
      4          6           0      -10.010538    2.868127   11.199533
      5          6           0      -10.188986    2.181359   12.395766
      6          6           0       -9.429973    2.520926   13.516200
      7          6           0       -8.487256    3.547134   13.426537
      8          1           0       -7.571058    5.038411   12.183581
      9          1           0      -10.601174    2.594432   10.320382
     10          1           0      -10.924594    1.375837   12.456514
     11          1           0       -9.566952    1.982935   14.456365
     12          1           0       -7.889392    3.816731   14.300756
     13          6           0       -8.949978    4.629346    9.824626
     14          6           0       -8.139521    5.673700    9.573175
     15          1           0       -9.590925    4.259172    9.017157
     16          1           0       -8.095774    6.117186    8.577113
     17          1           0       -7.431534    6.061931   10.309094
     18          8           0       -1.005873   -1.763055    7.456960
     19          8           0       -8.412586   -1.329006    7.461484
     20          8           0       -7.050565    1.346351   10.487448
     21          8           0       -2.332233   -4.357133   10.561207
     22         74           0       -3.420079    0.732922    6.489516
     23         74           0       -6.010308   -3.828212    6.580424
     24         74           0       -3.630773    0.914128   11.412301
     25         74           0       -5.777849   -3.866180   11.472296
     26         74           0       -2.467317   -2.551913    6.384902
     27         74           0       -6.943596   -0.537822    6.353841
     28         74           0       -6.825296   -0.249356   11.586014
     29         74           0       -2.571802   -2.697369   11.625064
     30          8           0       -3.187287    1.930618    5.322607
     31          8           0       -6.149612   -5.076939    5.436251
     32          8           0       -2.718283    1.768402   12.563846
     33          8           0       -6.681503   -4.685242   12.655350
     34          8           0       -2.689884   -0.872443    5.584453
     35          8           0       -6.718365   -2.271610    5.627226
     36          8           0       -5.322360    0.566758   12.366910
     37          8           0       -4.063943   -3.515154   12.410551
     38          8           0        0.294947    0.001383    9.268753
     39          8           0       -9.717171   -3.021328    9.322852
     40          8           0       -6.383503    3.417517    8.647529
     41          8           0       -2.971706   -6.455589    8.756808
     42          8           0       -1.804594    0.778291    7.478075
     43          8           0       -7.613664   -3.877554    7.555605
     44          8           0       -4.530461    2.219987   10.430513
     45          8           0       -4.863923   -5.214014   10.525381
     46          8           0       -1.629264   -3.477875    5.232016
     47          8           0       -7.835239    0.260421    5.162911
     48          8           0       -8.039769   -0.159790   12.767956
     49          8           0       -1.336587   -2.824699   12.785079
     50         74           0       -1.265875   -0.516904    8.840509
     51         74           0       -8.157634   -2.513010    8.877705
     52         74           0       -5.918388    1.849512    9.047014
     53         74           0       -3.471799   -4.884344    9.169609
     54          8           0       -4.236980   -3.092210    6.069103
     55          8           0       -5.172664   -0.035148    6.007662
     56          8           0       -6.182890   -1.998814   11.921764
     57          8           0       -3.185687   -0.953037   11.935478
     58          8           0       -4.382014    1.585448    7.849488
     59          8           0       -5.007623   -4.675061    7.925928
     60          8           0       -2.341279    0.599787   10.081360
     61          8           0       -7.066273   -3.611708   10.138883
     62          8           0       -2.579423   -3.872863    7.861436
     63          8           0       -6.837671    0.784043    7.805926
     64          8           0       -7.842300   -1.173157   10.155134
     65          8           0       -1.575812   -1.838858   10.147888
     66          8           0       -3.381006   -1.132465    8.010677
     67          8           0       -6.034059   -1.950532    8.038169
     68          8           0       -5.133385   -0.196544    9.952241
     69          8           0       -4.249703   -2.825157    9.980079
     70         19           0       -3.228846   -6.130338    5.657359
     71         19           0       -0.136450    0.046819   12.356598
     72         19           0       -9.280083   -2.921086   12.422355
     73         23           0       -4.702438   -1.522517    8.992295
 ---------------------------------------------------------------------

 SCF Done:  E(RwB97XD) =  -7327.70038049     A.U. after   11 cycles

 Alpha  occ. eigenvalues -- -197.29400-130.00166-130.00150-130.00071-101.47608
 Alpha  occ. eigenvalues --  -22.62526 -19.33622 -19.33606 -19.33602 -19.33575
 Alpha  occ. eigenvalues --  -19.30690 -19.30668 -19.30659 -19.30655 -19.30651
 Alpha  occ. eigenvalues --  -19.30643 -19.30615 -19.30589 -19.30499 -19.30307
 Alpha  occ. eigenvalues --  -19.30284 -19.30047 -19.29325 -19.29321 -19.29292
 Alpha  occ. eigenvalues --  -19.29281 -19.29279 -19.29268 -19.29260 -19.29200
 Alpha  occ. eigenvalues --  -19.29186 -19.29167 -19.29144 -19.29129 -19.29111
 Alpha  occ. eigenvalues --  -19.29105 -19.29100 -19.29095 -19.29075 -19.29064
 Alpha  occ. eigenvalues --  -19.29039 -19.28974 -19.28950 -19.28949 -19.28920
 Alpha  occ. eigenvalues --  -19.28744 -19.11483 -19.11475 -19.11465 -13.37569
 Alpha  occ. eigenvalues --  -13.37553 -13.37463 -10.70498 -10.70491 -10.70491
 Alpha  occ. eigenvalues --  -10.70482 -10.70475 -10.70475 -10.70394 -10.70387
 Alpha  occ. eigenvalues --  -10.70384 -10.29806 -10.29322 -10.29265 -10.29070
 Alpha  occ. eigenvalues --  -10.28978 -10.28974 -10.28129 -10.27619  -9.38064
 Alpha  occ. eigenvalues --   -7.12885  -7.12847  -7.12845  -3.23280  -3.23266
 Alpha  occ. eigenvalues --   -3.23257  -3.23255  -3.23247  -3.23240  -3.23183
 Alpha  occ. eigenvalues --   -3.23178  -3.23135  -3.22905  -3.22900  -3.22644
 Alpha  occ. eigenvalues --   -2.91777  -1.94158  -1.94129  -1.94118  -1.87689
 Alpha  occ. eigenvalues --   -1.87631  -1.87603  -1.87545  -1.87458  -1.87442
 Alpha  occ. eigenvalues --   -1.87435  -1.87400  -1.87352  -1.87217  -1.87186
 Alpha  occ. eigenvalues --   -1.86989  -1.86591  -1.86471  -1.86465  -1.86439
 Alpha  occ. eigenvalues --   -1.86419  -1.86373  -1.86302  -1.86288  -1.86266
 Alpha  occ. eigenvalues --   -1.86250  -1.86221  -1.86190  -1.86111  -1.86086
 Alpha  occ. eigenvalues --   -1.86082  -1.86051  -1.86010  -1.85955  -1.85934
 Alpha  occ. eigenvalues --   -1.85875  -1.85840  -1.85747  -1.85613  -1.85547
 Alpha  occ. eigenvalues --   -1.51252  -1.51237  -1.51148  -1.13018  -1.11256
 Alpha  occ. eigenvalues --   -1.11161  -1.11151  -1.08930  -1.08496  -1.08443
 Alpha  occ. eigenvalues --   -1.08263  -1.07530  -1.07473  -1.07446  -1.06868
 Alpha  occ. eigenvalues --   -1.06842  -1.06812  -1.06277  -1.06239  -1.05296
 Alpha  occ. eigenvalues --   -1.05291  -1.04948  -1.04937  -1.04910  -1.04176
 Alpha  occ. eigenvalues --   -1.04171  -1.04140  -1.03993  -1.03976  -1.03964
 Alpha  occ. eigenvalues --   -1.03914  -1.03859  -1.03841  -1.03725  -1.03681
 Alpha  occ. eigenvalues --   -1.03589  -1.03536  -1.03253  -1.03218  -1.03096
 Alpha  occ. eigenvalues --   -1.03079  -1.03016  -1.02891  -0.94397  -0.86715
 Alpha  occ. eigenvalues --   -0.86700  -0.86616  -0.86550  -0.86527  -0.86522
 Alpha  occ. eigenvalues --   -0.86511  -0.86504  -0.86427  -0.86409  -0.82825
 Alpha  occ. eigenvalues --   -0.79795  -0.70764  -0.69790  -0.68033  -0.64548
 Alpha  occ. eigenvalues --   -0.63913  -0.63859  -0.63844  -0.63279  -0.63248
 Alpha  occ. eigenvalues --   -0.63146  -0.63044  -0.62643  -0.62574  -0.61943
 Alpha  occ. eigenvalues --   -0.61574  -0.61554  -0.61463  -0.61190  -0.61172
 Alpha  occ. eigenvalues --   -0.61134  -0.60378  -0.59418  -0.59406  -0.59393
 Alpha  occ. eigenvalues --   -0.59352  -0.59325  -0.58692  -0.57963  -0.57932
 Alpha  occ. eigenvalues --   -0.57865  -0.57044  -0.57008  -0.56972  -0.56251
 Alpha  occ. eigenvalues --   -0.56206  -0.56058  -0.55668  -0.54822  -0.54767
 Alpha  occ. eigenvalues --   -0.54727  -0.54581  -0.54208  -0.54098  -0.54048
 Alpha  occ. eigenvalues --   -0.54006  -0.53920  -0.53228  -0.53175  -0.53058
 Alpha  occ. eigenvalues --   -0.52982  -0.52871  -0.52694  -0.52638  -0.52597
 Alpha  occ. eigenvalues --   -0.52551  -0.52504  -0.52441  -0.52419  -0.51557
 Alpha  occ. eigenvalues --   -0.51533  -0.51354  -0.51309  -0.51286  -0.51226
 Alpha  occ. eigenvalues --   -0.51149  -0.51116  -0.51012  -0.50735  -0.50553
 Alpha  occ. eigenvalues --   -0.50552  -0.50517  -0.49884  -0.49879  -0.49278
 Alpha  occ. eigenvalues --   -0.49248  -0.49227  -0.49170  -0.49129  -0.49034
 Alpha  occ. eigenvalues --   -0.48872  -0.48054  -0.48003  -0.47891  -0.47684
 Alpha  occ. eigenvalues --   -0.47331  -0.47276  -0.47218  -0.46987  -0.46944
 Alpha  occ. eigenvalues --   -0.46823  -0.46547  -0.46516  -0.46421  -0.46191
 Alpha  occ. eigenvalues --   -0.46128  -0.46071  -0.45606  -0.45066  -0.44885
 Alpha  occ. eigenvalues --   -0.44855  -0.44156  -0.44134  -0.43996  -0.43569
 Alpha  occ. eigenvalues --   -0.43284  -0.43225  -0.43098  -0.43078  -0.43035
 Alpha  occ. eigenvalues --   -0.42705  -0.42678  -0.42644  -0.42579  -0.42570
 Alpha  occ. eigenvalues --   -0.42489  -0.42442  -0.42430  -0.42270  -0.42257
 Alpha  occ. eigenvalues --   -0.42224  -0.42003  -0.41883  -0.41827  -0.41812
 Alpha  occ. eigenvalues --   -0.41210  -0.41193  -0.41146  -0.41042  -0.40538
 Alpha  occ. eigenvalues --   -0.40526  -0.40504  -0.40394  -0.39423  -0.39396
 Alpha  occ. eigenvalues --   -0.36863  -0.32543  -0.28800  -0.24516  -0.24486
 Alpha  occ. eigenvalues --   -0.23226
 Alpha virt. eigenvalues --   -0.09416  -0.09217  -0.08347  -0.08295  -0.06922
 Alpha virt. eigenvalues --   -0.06855  -0.06769  -0.04411  -0.04118  -0.04089
 Alpha virt. eigenvalues --   -0.03670  -0.03507  -0.03422  -0.03183  -0.03063

 Mulliken charges:
               1
     1  Cl  -0.931981
     2  C   -0.078507
     3  C    0.040195
     4  C   -0.076123
     5  C   -0.033159
     6  C   -0.030878
     7  C   -0.050168
     8  H    0.028451
     9  H    0.030027
    10  H    0.040464
    11  H    0.036773
    12  H    0.039478
    13  C   -0.090514
    14  C    0.016457
    15  H    0.019825
    16  H    0.040025
    17  H    0.037075
    18  O   -0.663031
    19  O   -0.659560
    20  O   -0.654751
    21  O   -0.661355
    22  W    1.734107
    23  W    1.669822
    24  W    1.679876
    25  W    1.690163
    26  W    1.674964
    27  W    1.726445
    28  W    1.621157
    29  W    1.682922
    30  O   -0.321479
    31  O   -0.366269
    32  O   -0.365992
    33  O   -0.363479
    34  O   -0.664056
    35  O   -0.669968
    36  O   -0.660827
    37  O   -0.662477
    38  O   -0.365980
    39  O   -0.365762
    40  O   -0.293051
    41  O   -0.365536
    42  O   -0.669612
    43  O   -0.662329
    44  O   -0.658491
    45  O   -0.665350
    46  O   -0.366079
    47  O   -0.321262
    48  O   -0.354634
    49  O   -0.364197
    50  W    1.671479
    51  W    1.674465
    52  W    1.677855
    53  W    1.682818
    54  O   -0.722932
    55  O   -0.706294
    56  O   -0.725817
    57  O   -0.721114
    58  O   -0.706509
    59  O   -0.725548
    60  O   -0.724237
    61  O   -0.720095
    62  O   -0.723909
    63  O   -0.708107
    64  O   -0.722628
    65  O   -0.726020
    66  O   -0.801298
    67  O   -0.800747
    68  O   -0.798826
    69  O   -0.809294
    70  K    0.866391
    71  K    0.866256
    72  K    0.862676
    73  V    1.190067
 Sum of Mulliken charges =  -1.00000

 Dipole moment (field-independent basis, Debye):
    X=             51.9637    Y=            -51.0418    Z=            -38.4793  Tot=             82.3781
 Quadrupole moment (field-independent basis, Debye-Ang):
   XX=          -1073.7638   YY=           -874.5530   ZZ=           -909.6467
   XY=            457.1402   XZ=            465.3545   YZ=           -474.7066

 Normal termination of Gaussian 16 at Sun Jun  2 02:22:21 2024.
