 Gaussian 16, Revision C.01,
 Gaussian 16:  ES64L-G16RevC.01  3-Jul-2019

 ----------------------------------------------------------------------
 # def2svp wb97xd scrf=(smd,solvent=acetonitrile) g09default scf=(xqc,m
 axcycle=64) force guess=read nosymm
 ----------------------------------------------------------------------

 ----------
 Title Card
 ----------
 Symbolic Z-matrix:
 Charge = -1 Multiplicity = 1

                          Input orientation:
 ---------------------------------------------------------------------
 Center     Atomic      Atomic             Coordinates (Angstroms)
 Number     Number       Type             X           Y           Z
 ---------------------------------------------------------------------
      1         17           0       -9.969666    7.993965   10.494023
      2          6           0       -8.312309    4.237852   12.231747
      3          6           0       -9.078423    3.916202   11.096522
      4          6           0      -10.010538    2.868127   11.199533
      5          6           0      -10.188986    2.181359   12.395766
      6          6           0       -9.429973    2.520926   13.516200
      7          6           0       -8.487256    3.547134   13.426537
      8          1           0       -7.571058    5.038411   12.183581
      9          1           0      -10.601174    2.594432   10.320382
     10          1           0      -10.924594    1.375837   12.456514
     11          1           0       -9.566952    1.982935   14.456365
     12          1           0       -7.889392    3.816731   14.300756
     13          6           0       -8.949978    4.629346    9.824626
     14          6           0       -8.139521    5.673700    9.573175
     15          1           0       -9.590925    4.259172    9.017157
     16          1           0       -8.095774    6.117186    8.577113
     17          1           0       -7.431534    6.061931   10.309094
     18          8           0       -1.005873   -1.763055    7.456960
     19          8           0       -8.412586   -1.329006    7.461484
     20          8           0       -7.050565    1.346351   10.487448
     21          8           0       -2.332233   -4.357133   10.561207
     22         74           0       -3.420079    0.732922    6.489516
     23         74           0       -6.010308   -3.828212    6.580424
     24         74           0       -3.630773    0.914128   11.412301
     25         74           0       -5.777849   -3.866180   11.472296
     26         74           0       -2.467317   -2.551913    6.384902
     27         74           0       -6.943596   -0.537822    6.353841
     28         74           0       -6.825296   -0.249356   11.586014
     29         74           0       -2.571802   -2.697369   11.625064
     30          8           0       -3.187287    1.930618    5.322607
     31          8           0       -6.149612   -5.076939    5.436251
     32          8           0       -2.718283    1.768402   12.563846
     33          8           0       -6.681503   -4.685242   12.655350
     34          8           0       -2.689884   -0.872443    5.584453
     35          8           0       -6.718365   -2.271610    5.627226
     36          8           0       -5.322360    0.566758   12.366910
     37          8           0       -4.063943   -3.515154   12.410551
     38          8           0        0.294947    0.001383    9.268753
     39          8           0       -9.717171   -3.021328    9.322852
     40          8           0       -6.383503    3.417517    8.647529
     41          8           0       -2.971706   -6.455589    8.756808
     42          8           0       -1.804594    0.778291    7.478075
     43          8           0       -7.613664   -3.877554    7.555605
     44          8           0       -4.530461    2.219987   10.430513
     45          8           0       -4.863923   -5.214014   10.525381
     46          8           0       -1.629264   -3.477875    5.232016
     47          8           0       -7.835239    0.260421    5.162911
     48          8           0       -8.039769   -0.159790   12.767956
     49          8           0       -1.336587   -2.824699   12.785079
     50         74           0       -1.265875   -0.516904    8.840509
     51         74           0       -8.157634   -2.513010    8.877705
     52         74           0       -5.918388    1.849512    9.047014
     53         74           0       -3.471799   -4.884344    9.169609
     54          8           0       -4.236980   -3.092210    6.069103
     55          8           0       -5.172664   -0.035148    6.007662
     56          8           0       -6.182890   -1.998814   11.921764
     57          8           0       -3.185687   -0.953037   11.935478
     58          8           0       -4.382014    1.585448    7.849488
     59          8           0       -5.007623   -4.675061    7.925928
     60          8           0       -2.341279    0.599787   10.081360
     61          8           0       -7.066273   -3.611708   10.138883
     62          8           0       -2.579423   -3.872863    7.861436
     63          8           0       -6.837671    0.784043    7.805926
     64          8           0       -7.842300   -1.173157   10.155134
     65          8           0       -1.575812   -1.838858   10.147888
     66          8           0       -3.381006   -1.132465    8.010677
     67          8           0       -6.034059   -1.950532    8.038169
     68          8           0       -5.133385   -0.196544    9.952241
     69          8           0       -4.249703   -2.825157    9.980079
     70         19           0       -3.228846   -6.130338    5.657359
     71         19           0       -0.136450    0.046819   12.356598
     72         19           0       -9.280083   -2.921086   12.422355
     73         23           0       -4.702438   -1.522517    8.992295
 ---------------------------------------------------------------------

 SCF Done:  E(UwB97XD) =  -7327.70057663     A.U. after   32 cycles

 Alpha  occ. eigenvalues --  -19.24685 -18.94125 -18.93021 -18.93014 -13.36587
 Alpha  occ. eigenvalues --  -13.36562 -13.36538 -10.69513 -10.69509 -10.69509
 Alpha  occ. eigenvalues --  -10.69488 -10.69484 -10.69484 -10.69466 -10.69461
 Alpha  occ. eigenvalues --  -10.69459 -10.32788 -10.32138 -10.31749 -10.30849
 Alpha  occ. eigenvalues --  -10.30829 -10.30811 -10.30448 -10.30369  -9.52667
 Alpha  occ. eigenvalues --   -7.27552  -7.27205  -7.27199  -3.21053  -3.21029
 Alpha  occ. eigenvalues --   -3.21027  -3.21023  -3.21001  -3.20981  -3.20978
 Alpha  occ. eigenvalues --   -3.20972  -3.20966  -3.20827  -3.20802  -3.20780
 Alpha  occ. eigenvalues --   -2.78831  -1.85299  -1.85269  -1.85242  -1.85219
 Alpha  occ. eigenvalues --   -1.85094  -1.85051  -1.85031  -1.85012  -1.84998
 Alpha  occ. eigenvalues --   -1.84994  -1.84966  -1.84902  -1.84356  -1.84243
 Alpha  occ. eigenvalues --   -1.84230  -1.84225  -1.84185  -1.84179  -1.84107
 Alpha  occ. eigenvalues --   -1.84093  -1.84071  -1.84061  -1.84039  -1.84027
 Alpha  occ. eigenvalues --   -1.83905  -1.83880  -1.83865  -1.83860  -1.83821
 Alpha  occ. eigenvalues --   -1.83788  -1.83770  -1.83765  -1.83747  -1.83647
 Alpha  occ. eigenvalues --   -1.83642  -1.83629  -1.81988  -1.81648  -1.81636
 Alpha  occ. eigenvalues --   -1.50284  -1.50259  -1.50236  -1.08599  -1.06970
 Alpha  occ. eigenvalues --   -1.06931  -1.06907  -1.05986  -1.05975  -1.05939
 Alpha  occ. eigenvalues --   -1.04551  -1.04541  -1.04539  -1.03951  -1.03934
 Alpha  occ. eigenvalues --   -1.03701  -1.03343  -1.03303  -1.03283  -1.03026
 Alpha  occ. eigenvalues --   -1.03001  -1.02238  -1.02229  -1.02198  -1.02050
 Alpha  occ. eigenvalues --   -1.02002  -1.01974  -1.01902  -1.01877  -1.01774
 Alpha  occ. eigenvalues --   -1.01732  -1.01721  -1.01607  -1.01554  -1.01534
 Alpha  occ. eigenvalues --   -1.01285  -1.00805  -1.00750  -1.00704  -1.00692
 Alpha  occ. eigenvalues --   -1.00008  -0.99936  -0.99877  -0.96068  -0.89167
 Alpha  occ. eigenvalues --   -0.85722  -0.85697  -0.85679  -0.85572  -0.85564
 Alpha  occ. eigenvalues --   -0.85547  -0.85542  -0.85529  -0.85509  -0.84163
 Alpha  occ. eigenvalues --   -0.82254  -0.81041  -0.71816  -0.69511  -0.64956
 Alpha  occ. eigenvalues --   -0.62283  -0.61665  -0.61627  -0.61588  -0.60518
 Alpha  occ. eigenvalues --   -0.58943  -0.58935  -0.58916  -0.58866  -0.58796
 Alpha  occ. eigenvalues --   -0.58739  -0.58729  -0.58679  -0.58522  -0.57360
 Alpha  occ. eigenvalues --   -0.57328  -0.57298  -0.57012  -0.56668  -0.56464
 Alpha  occ. eigenvalues --   -0.56421  -0.56383  -0.56001  -0.55853  -0.55349
 Alpha  occ. eigenvalues --   -0.55344  -0.55311  -0.54315  -0.54168  -0.54141
 Alpha  occ. eigenvalues --   -0.53958  -0.53670  -0.53624  -0.53599  -0.52683
 Alpha  occ. eigenvalues --   -0.52590  -0.52568  -0.52480  -0.52434  -0.51474
 Alpha  occ. eigenvalues --   -0.51460  -0.51443  -0.51366  -0.51309  -0.50670
 Alpha  occ. eigenvalues --   -0.50541  -0.50512  -0.50455  -0.50356  -0.50256
 Alpha  occ. eigenvalues --   -0.50216  -0.50060  -0.50005  -0.49996  -0.49734
 Alpha  occ. eigenvalues --   -0.49643  -0.49619  -0.49475  -0.49444  -0.49285
 Alpha  occ. eigenvalues --   -0.49252  -0.49182  -0.49094  -0.49056  -0.48971
 Alpha  occ. eigenvalues --   -0.48679  -0.48524  -0.48497  -0.48444  -0.47683
 Alpha  occ. eigenvalues --   -0.47656  -0.47117  -0.46463  -0.46029  -0.46006
 Alpha  occ. eigenvalues --   -0.45855  -0.45746  -0.45670  -0.45582  -0.45185
 Alpha  occ. eigenvalues --   -0.45146  -0.45134  -0.44820  -0.44609  -0.44475
 Alpha  occ. eigenvalues --   -0.44454  -0.44439  -0.44261  -0.44217  -0.44201
 Alpha  occ. eigenvalues --   -0.43431  -0.42988  -0.42550  -0.42502  -0.42445
 Alpha  occ. eigenvalues --   -0.42304  -0.42166  -0.42153  -0.42041  -0.41630
 Alpha  occ. eigenvalues --   -0.41607  -0.41560  -0.41019  -0.40975  -0.40788
 Alpha  occ. eigenvalues --   -0.40742  -0.40738  -0.40390  -0.40382  -0.40329
 Alpha  occ. eigenvalues --   -0.40205  -0.40173  -0.40149  -0.40123  -0.39853
 Alpha  occ. eigenvalues --   -0.39341  -0.39270  -0.39252  -0.39143  -0.39044
 Alpha  occ. eigenvalues --   -0.38931  -0.38897  -0.38831  -0.38757  -0.38706
 Alpha  occ. eigenvalues --   -0.38306  -0.38276  -0.38244  -0.37812  -0.37188
 Alpha  occ. eigenvalues --   -0.37181  -0.34785  -0.34768  -0.33554  -0.29859
 Alpha  occ. eigenvalues --   -0.25797
 Alpha virt. eigenvalues --   -0.12174  -0.06234  -0.06191  -0.04786  -0.04702
 Alpha virt. eigenvalues --   -0.04604  -0.01497  -0.01398  -0.01332  -0.01073
 Alpha virt. eigenvalues --   -0.00904  -0.00870  -0.00820  -0.00126  -0.00055

  Beta  occ. eigenvalues -- -197.10866-129.99177-129.99152-129.99139-101.62671
  Beta  occ. eigenvalues --  -22.43285 -19.28498 -19.28480 -19.28451 -19.28375
  Beta  occ. eigenvalues --  -19.28368 -19.28345 -19.28344 -19.28340 -19.28322
  Beta  occ. eigenvalues --  -19.28232 -19.28204 -19.28114 -19.26945 -19.26910
  Beta  occ. eigenvalues --  -19.26896 -19.26891 -19.26879 -19.26875 -19.26841
  Beta  occ. eigenvalues --  -19.26840 -19.26830 -19.26808 -19.26803 -19.26794
  Beta  occ. eigenvalues --  -19.26786 -19.26785 -19.26783 -19.26781 -19.26770
  Beta  occ. eigenvalues --  -19.26757 -19.26736 -19.26724 -19.26718 -19.26714
  Beta  occ. eigenvalues --  -19.26650 -19.26609 -19.24760 -19.24694 -19.24680
  Beta  occ. eigenvalues --  -19.24660 -18.93780 -18.91559 -18.91550 -13.36587
  Beta  occ. eigenvalues --  -13.36562 -13.36538 -10.69513 -10.69509 -10.69509
  Beta  occ. eigenvalues --  -10.69488 -10.69484 -10.69484 -10.69466 -10.69461
  Beta  occ. eigenvalues --  -10.69459 -10.33017 -10.32303 -10.31708 -10.30937
  Beta  occ. eigenvalues --  -10.30933 -10.30895 -10.30399 -10.30319  -9.53127
  Beta  occ. eigenvalues --   -7.29000  -7.27519  -7.27514  -3.21053  -3.21026
  Beta  occ. eigenvalues --   -3.21024  -3.21022  -3.20995  -3.20975  -3.20972
  Beta  occ. eigenvalues --   -3.20966  -3.20960  -3.20826  -3.20799  -3.20775
  Beta  occ. eigenvalues --   -2.74767  -1.85294  -1.85263  -1.85238  -1.85211
  Beta  occ. eigenvalues --   -1.85089  -1.85046  -1.85025  -1.85004  -1.84991
  Beta  occ. eigenvalues --   -1.84986  -1.84963  -1.84893  -1.84354  -1.84241
  Beta  occ. eigenvalues --   -1.84228  -1.84221  -1.84182  -1.84176  -1.84104
  Beta  occ. eigenvalues --   -1.84091  -1.84068  -1.84058  -1.84037  -1.84023
  Beta  occ. eigenvalues --   -1.83903  -1.83877  -1.83863  -1.83857  -1.83818
  Beta  occ. eigenvalues --   -1.83785  -1.83767  -1.83762  -1.83744  -1.83645
  Beta  occ. eigenvalues --   -1.83640  -1.83626  -1.80650  -1.75902  -1.75878
  Beta  occ. eigenvalues --   -1.50284  -1.50259  -1.50236  -1.08582  -1.06951
  Beta  occ. eigenvalues --   -1.06909  -1.06881  -1.05985  -1.05972  -1.05938
  Beta  occ. eigenvalues --   -1.04552  -1.04543  -1.04538  -1.03950  -1.03936
  Beta  occ. eigenvalues --   -1.03635  -1.03310  -1.03265  -1.03249  -1.03025
  Beta  occ. eigenvalues --   -1.02993  -1.02219  -1.02204  -1.02181  -1.02042
  Beta  occ. eigenvalues --   -1.01997  -1.01961  -1.01898  -1.01866  -1.01770
  Beta  occ. eigenvalues --   -1.01730  -1.01718  -1.01607  -1.01551  -1.01519
  Beta  occ. eigenvalues --   -1.01286  -1.00768  -1.00750  -1.00703  -1.00691
  Beta  occ. eigenvalues --   -0.99876  -0.99799  -0.99758  -0.96265  -0.89798
  Beta  occ. eigenvalues --   -0.85722  -0.85697  -0.85679  -0.85571  -0.85564
  Beta  occ. eigenvalues --   -0.85547  -0.85542  -0.85529  -0.85509  -0.84603
  Beta  occ. eigenvalues --   -0.84248  -0.82642  -0.72066  -0.69620  -0.65182
  Beta  occ. eigenvalues --   -0.62283  -0.61665  -0.61627  -0.61588  -0.60697
  Beta  occ. eigenvalues --   -0.58936  -0.58934  -0.58914  -0.58781  -0.58747
  Beta  occ. eigenvalues --   -0.58719  -0.58707  -0.58646  -0.58522  -0.57336
  Beta  occ. eigenvalues --   -0.57170  -0.57130  -0.56969  -0.56835  -0.56466
  Beta  occ. eigenvalues --   -0.56390  -0.56347  -0.55809  -0.55592  -0.55330
  Beta  occ. eigenvalues --   -0.55326  -0.55311  -0.54477  -0.54163  -0.54130
  Beta  occ. eigenvalues --   -0.53946  -0.53637  -0.53604  -0.53558  -0.52728
  Beta  occ. eigenvalues --   -0.52618  -0.52557  -0.52462  -0.52426  -0.51466
  Beta  occ. eigenvalues --   -0.51433  -0.51420  -0.51303  -0.51243  -0.50826
  Beta  occ. eigenvalues --   -0.50473  -0.50451  -0.50395  -0.50306  -0.50214
  Beta  occ. eigenvalues --   -0.50157  -0.50030  -0.50002  -0.49969  -0.49681
  Beta  occ. eigenvalues --   -0.49620  -0.49597  -0.49467  -0.49434  -0.49287
  Beta  occ. eigenvalues --   -0.49228  -0.49182  -0.49065  -0.49039  -0.48946
  Beta  occ. eigenvalues --   -0.48672  -0.48533  -0.48493  -0.48435  -0.47769
  Beta  occ. eigenvalues --   -0.47629  -0.47536  -0.45895  -0.45884  -0.45787
  Beta  occ. eigenvalues --   -0.45778  -0.45661  -0.45550  -0.45186  -0.45163
  Beta  occ. eigenvalues --   -0.45140  -0.45040  -0.44820  -0.44609  -0.44457
  Beta  occ. eigenvalues --   -0.44422  -0.44398  -0.44257  -0.44193  -0.44172
  Beta  occ. eigenvalues --   -0.43425  -0.43074  -0.42498  -0.42472  -0.42399
  Beta  occ. eigenvalues --   -0.42248  -0.42126  -0.42114  -0.42107  -0.41609
  Beta  occ. eigenvalues --   -0.41595  -0.41543  -0.41287  -0.41023  -0.40926
  Beta  occ. eigenvalues --   -0.40741  -0.40710  -0.40643  -0.40373  -0.40369
  Beta  occ. eigenvalues --   -0.40303  -0.40158  -0.40136  -0.40114  -0.39796
  Beta  occ. eigenvalues --   -0.39629  -0.39343  -0.39165  -0.39113  -0.39089
  Beta  occ. eigenvalues --   -0.38901  -0.38872  -0.38833  -0.38756  -0.38704
  Beta  occ. eigenvalues --   -0.38667  -0.38305  -0.38271  -0.38240  -0.37723
  Beta  occ. eigenvalues --   -0.37190  -0.37175  -0.35750  -0.35734  -0.33788
  Beta  occ. eigenvalues --   -0.30747
  Beta virt. eigenvalues --   -0.06232  -0.06191  -0.04785  -0.04700  -0.04603
  Beta virt. eigenvalues --   -0.01493  -0.01394  -0.01327  -0.01068  -0.00898
  Beta virt. eigenvalues --   -0.00866  -0.00817  -0.00122  -0.00043  -0.00007

 Mulliken charges and spin densities:
               1          2
     1  Cl  -0.346033  -0.626354
     2  C   -0.037593  -0.080689
     3  C    0.014741   0.045024
     4  C   -0.035999  -0.077061
     5  C   -0.030921   0.049658
     6  C    0.006586  -0.098245
     7  C   -0.048730   0.049231
     8  H    0.046931   0.003446
     9  H    0.049368   0.003317
    10  H    0.053865  -0.001749
    11  H    0.054883   0.004318
    12  H    0.052756  -0.001712
    13  C   -0.000010  -0.203035
    14  C   -0.029535  -0.079280
    15  H    0.072429   0.008715
    16  H    0.094276   0.004397
    17  H    0.091838   0.003548
    18  O   -0.671798  -0.000569
    19  O   -0.668447  -0.000499
    20  O   -0.665833  -0.001852
    21  O   -0.670407  -0.000524
    22  W    1.717477   0.000355
    23  W    1.655500   0.000509
    24  W    1.667596   0.000190
    25  W    1.676262   0.000192
    26  W    1.661282   0.002745
    27  W    1.708863   0.002500
    28  W    1.612953   0.003279
    29  W    1.668775   0.002892
    30  O   -0.351131  -0.000535
    31  O   -0.394578  -0.000560
    32  O   -0.394202  -0.000604
    33  O   -0.392066  -0.000554
    34  O   -0.672422  -0.000311
    35  O   -0.677272  -0.000077
    36  O   -0.669683  -0.000150
    37  O   -0.671378  -0.000237
    38  O   -0.395731   0.002042
    39  O   -0.395712   0.002058
    40  O   -0.339341  -0.000976
    41  O   -0.395526   0.002046
    42  O   -0.677183   0.000090
    43  O   -0.670884   0.000185
    44  O   -0.667110   0.000309
    45  O   -0.673636   0.000109
    46  O   -0.396048   0.002341
    47  O   -0.352818   0.002232
    48  O   -0.387447   0.001812
    49  O   -0.394262   0.002396
    50  W    1.657343   0.002752
    51  W    1.660294   0.002639
    52  W    1.673073   0.003753
    53  W    1.668368   0.002574
    54  O   -0.720916   0.000092
    55  O   -0.704832   0.000002
    56  O   -0.722463   0.000160
    57  O   -0.719366   0.000052
    58  O   -0.703800  -0.000013
    59  O   -0.722812   0.000148
    60  O   -0.721741   0.000200
    61  O   -0.717834   0.000195
    62  O   -0.722328  -0.000169
    63  O   -0.706447  -0.000010
    64  O   -0.721761  -0.000187
    65  O   -0.723966  -0.000201
    66  O   -0.883780   0.005113
    67  O   -0.883860   0.007195
    68  O   -0.882078   0.007061
    69  O   -0.888908   0.006532
    70  K    0.852885   0.000190
    71  K    0.852947   0.000210
    72  K    0.849007   0.000233
    73  V    1.200329   0.937114
 Sum of Mulliken charges =  -1.00000  -0.00000

 Dipole moment (field-independent basis, Debye):
    X=             29.3170    Y=            -13.7778    Z=            -30.6735  Tot=             44.6115
 Quadrupole moment (field-independent basis, Debye-Ang):
   XX=           -779.4757   YY=           -700.8919   ZZ=           -781.3786
   XY=            132.2087   XZ=            186.8382   YZ=            -93.8941

 Normal termination of Gaussian 16 at Sun Jun  2 02:11:49 2024.
