 Gaussian 16, Revision C.01,
 Gaussian 16:  ES64L-G16RevC.01  3-Jul-2019

 ----------------------------------------------------------------------
 # def2svp wb97xd scrf=(smd,solvent=acetonitrile) g09default scf=(xqc,m
 axcycle=64) force guess=read nosymm
 ----------------------------------------------------------------------

 ----------
 Title Card
 ----------
 Symbolic Z-matrix:
 Charge = -1 Multiplicity = 1

                          Input orientation:
 ---------------------------------------------------------------------
 Center     Atomic      Atomic             Coordinates (Angstroms)
 Number     Number       Type             X           Y           Z
 ---------------------------------------------------------------------
      1         17           0       -9.963726    8.010319   10.498490
      2          6           0       -8.313309    4.237556   12.231243
      3          6           0       -9.080405    3.916227   11.096795
      4          6           0      -10.011898    2.867308   11.199876
      5          6           0      -10.189871    2.180944   12.396780
      6          6           0       -9.431074    2.521738   13.516945
      7          6           0       -8.487660    3.547350   13.426491
      8          1           0       -7.570945    5.036949   12.181258
      9          1           0      -10.601208    2.592204   10.320594
     10          1           0      -10.924059    1.374268   12.457682
     11          1           0       -9.568175    1.984442   14.457522
     12          1           0       -7.888201    3.816054   14.299829
     13          6           0       -8.953024    4.629929    9.825234
     14          6           0       -8.146072    5.677293    9.573709
     15          1           0       -9.593430    4.258747    9.017696
     16          1           0       -8.103313    6.119062    8.576883
     17          1           0       -7.442182    6.071450   10.310510
     18          8           0       -1.004552   -1.763941    7.457134
     19          8           0       -8.412730   -1.329448    7.461248
     20          8           0       -7.049707    1.346667   10.486819
     21          8           0       -2.331966   -4.358361   10.560731
     22         74           0       -3.419386    0.730428    6.488554
     23         74           0       -6.009767   -3.827696    6.579512
     24         74           0       -3.630559    0.912749   11.412896
     25         74           0       -5.777010   -3.865354   11.472174
     26         74           0       -2.466045   -2.553389    6.386038
     27         74           0       -6.943643   -0.537965    6.355002
     28         74           0       -6.825064   -0.249079   11.584130
     29         74           0       -2.571043   -2.698315   11.623758
     30          8           0       -3.185568    1.927485    5.321387
     31          8           0       -6.149733   -5.075725    5.435356
     32          8           0       -2.718882    1.766856   12.565052
     33          8           0       -6.679892   -4.684338   12.655581
     34          8           0       -2.688240   -0.874010    5.584085
     35          8           0       -6.718300   -2.271616    5.626830
     36          8           0       -5.322304    0.566617   12.366614
     37          8           0       -4.063298   -3.515775   12.410151
     38          8           0        0.294877    0.001733    9.268699
     39          8           0       -9.716749   -3.022308    9.322159
     40          8           0       -6.382177    3.417782    8.650550
     41          8           0       -2.973159   -6.456588    8.758050
     42          8           0       -1.803473    0.777466    7.477460
     43          8           0       -7.613638   -3.878009    7.554869
     44          8           0       -4.529130    2.220061   10.431130
     45          8           0       -4.864253   -5.214489   10.525302
     46          8           0       -1.627973   -3.479944    5.233738
     47          8           0       -7.835802    0.259726    5.164509
     48          8           0       -8.040024   -0.158463   12.765681
     49          8           0       -1.335875   -2.827200   12.783504
     50         74           0       -1.265813   -0.516867    8.839998
     51         74           0       -8.156998   -2.514152    8.877046
     52         74           0       -5.915721    1.849168    9.047518
     53         74           0       -3.472704   -4.885166    9.169872
     54          8           0       -4.236172   -3.092660    6.068756
     55          8           0       -5.172062   -0.036311    6.007270
     56          8           0       -6.182050   -1.998348   11.921132
     57          8           0       -3.184829   -0.953916   11.935775
     58          8           0       -4.380542    1.584314    7.849207
     59          8           0       -5.007575   -4.675000    7.925597
     60          8           0       -2.340975    0.599058   10.081411
     61          8           0       -7.065960   -3.611602   10.138574
     62          8           0       -2.579087   -3.873540    7.861971
     63          8           0       -6.836321    0.783650    7.806498
     64          8           0       -7.841607   -1.173033   10.153732
     65          8           0       -1.575953   -1.839963   10.146793
     66          8           0       -3.380017   -1.133381    8.009774
     67          8           0       -6.033949   -1.950641    8.037549
     68          8           0       -5.132203   -0.196568    9.952192
     69          8           0       -4.249214   -2.825554    9.979921
     70         19           0       -3.227960   -6.131641    5.656199
     71         19           0       -0.134214    0.047873   12.357195
     72         19           0       -9.281414   -2.918778   12.423896
     73         23           0       -4.701825   -1.522748    8.991760
 ---------------------------------------------------------------------

 SCF Done:  E(RwB97XD) =  -7327.70040780     A.U. after   11 cycles

 Alpha  occ. eigenvalues -- -197.29449-130.00173-130.00159-130.00078-101.47619
 Alpha  occ. eigenvalues --  -22.62572 -19.33649 -19.33634 -19.33627 -19.33606
 Alpha  occ. eigenvalues --  -19.30698 -19.30670 -19.30659 -19.30656 -19.30649
 Alpha  occ. eigenvalues --  -19.30643 -19.30619 -19.30586 -19.30499 -19.30311
 Alpha  occ. eigenvalues --  -19.30289 -19.30046 -19.29321 -19.29319 -19.29289
 Alpha  occ. eigenvalues --  -19.29278 -19.29276 -19.29267 -19.29256 -19.29195
 Alpha  occ. eigenvalues --  -19.29185 -19.29166 -19.29142 -19.29130 -19.29109
 Alpha  occ. eigenvalues --  -19.29106 -19.29099 -19.29096 -19.29075 -19.29061
 Alpha  occ. eigenvalues --  -19.29042 -19.28970 -19.28951 -19.28947 -19.28918
 Alpha  occ. eigenvalues --  -19.28754 -19.11530 -19.11521 -19.11512 -13.37577
 Alpha  occ. eigenvalues --  -13.37563 -13.37471 -10.70506 -10.70499 -10.70499
 Alpha  occ. eigenvalues --  -10.70492 -10.70485 -10.70484 -10.70402 -10.70395
 Alpha  occ. eigenvalues --  -10.70392 -10.29813 -10.29329 -10.29272 -10.29077
 Alpha  occ. eigenvalues --  -10.28989 -10.28979 -10.28144 -10.27644  -9.38075
 Alpha  occ. eigenvalues --   -7.12896  -7.12857  -7.12856  -3.23278  -3.23267
 Alpha  occ. eigenvalues --   -3.23256  -3.23254  -3.23246  -3.23240  -3.23182
 Alpha  occ. eigenvalues --   -3.23181  -3.23136  -3.22907  -3.22903  -3.22649
 Alpha  occ. eigenvalues --   -2.91814  -1.94192  -1.94164  -1.94153  -1.87691
 Alpha  occ. eigenvalues --   -1.87633  -1.87607  -1.87549  -1.87459  -1.87444
 Alpha  occ. eigenvalues --   -1.87436  -1.87401  -1.87354  -1.87221  -1.87191
 Alpha  occ. eigenvalues --   -1.86989  -1.86590  -1.86471  -1.86464  -1.86438
 Alpha  occ. eigenvalues --   -1.86418  -1.86374  -1.86302  -1.86288  -1.86265
 Alpha  occ. eigenvalues --   -1.86249  -1.86223  -1.86191  -1.86109  -1.86086
 Alpha  occ. eigenvalues --   -1.86082  -1.86051  -1.86010  -1.85956  -1.85935
 Alpha  occ. eigenvalues --   -1.85875  -1.85841  -1.85748  -1.85616  -1.85552
 Alpha  occ. eigenvalues --   -1.51259  -1.51245  -1.51155  -1.13039  -1.11278
 Alpha  occ. eigenvalues --   -1.11185  -1.11172  -1.08939  -1.08498  -1.08446
 Alpha  occ. eigenvalues --   -1.08264  -1.07538  -1.07482  -1.07457  -1.06870
 Alpha  occ. eigenvalues --   -1.06844  -1.06817  -1.06280  -1.06244  -1.05295
 Alpha  occ. eigenvalues --   -1.05290  -1.04950  -1.04940  -1.04914  -1.04175
 Alpha  occ. eigenvalues --   -1.04171  -1.04140  -1.03997  -1.03978  -1.03963
 Alpha  occ. eigenvalues --   -1.03918  -1.03860  -1.03842  -1.03727  -1.03681
 Alpha  occ. eigenvalues --   -1.03590  -1.03537  -1.03257  -1.03224  -1.03093
 Alpha  occ. eigenvalues --   -1.03076  -1.03015  -1.02892  -0.94400  -0.86722
 Alpha  occ. eigenvalues --   -0.86707  -0.86623  -0.86559  -0.86534  -0.86529
 Alpha  occ. eigenvalues --   -0.86519  -0.86512  -0.86434  -0.86416  -0.82828
 Alpha  occ. eigenvalues --   -0.79803  -0.70773  -0.69795  -0.68045  -0.64550
 Alpha  occ. eigenvalues --   -0.63913  -0.63862  -0.63848  -0.63299  -0.63268
 Alpha  occ. eigenvalues --   -0.63165  -0.63049  -0.62659  -0.62588  -0.61963
 Alpha  occ. eigenvalues --   -0.61583  -0.61563  -0.61472  -0.61190  -0.61171
 Alpha  occ. eigenvalues --   -0.61135  -0.60382  -0.59426  -0.59411  -0.59398
 Alpha  occ. eigenvalues --   -0.59361  -0.59332  -0.58697  -0.57965  -0.57935
 Alpha  occ. eigenvalues --   -0.57868  -0.57057  -0.57021  -0.56986  -0.56257
 Alpha  occ. eigenvalues --   -0.56213  -0.56062  -0.55671  -0.54825  -0.54770
 Alpha  occ. eigenvalues --   -0.54728  -0.54585  -0.54211  -0.54101  -0.54052
 Alpha  occ. eigenvalues --   -0.54012  -0.53927  -0.53225  -0.53173  -0.53056
 Alpha  occ. eigenvalues --   -0.52980  -0.52872  -0.52693  -0.52636  -0.52596
 Alpha  occ. eigenvalues --   -0.52550  -0.52510  -0.52443  -0.52419  -0.51561
 Alpha  occ. eigenvalues --   -0.51538  -0.51361  -0.51316  -0.51292  -0.51233
 Alpha  occ. eigenvalues --   -0.51156  -0.51122  -0.51019  -0.50730  -0.50549
 Alpha  occ. eigenvalues --   -0.50547  -0.50512  -0.49884  -0.49878  -0.49284
 Alpha  occ. eigenvalues --   -0.49251  -0.49228  -0.49173  -0.49131  -0.49034
 Alpha  occ. eigenvalues --   -0.48876  -0.48061  -0.48008  -0.47895  -0.47692
 Alpha  occ. eigenvalues --   -0.47333  -0.47279  -0.47222  -0.46991  -0.46948
 Alpha  occ. eigenvalues --   -0.46823  -0.46545  -0.46510  -0.46423  -0.46200
 Alpha  occ. eigenvalues --   -0.46136  -0.46079  -0.45609  -0.45068  -0.44888
 Alpha  occ. eigenvalues --   -0.44857  -0.44160  -0.44139  -0.44003  -0.43578
 Alpha  occ. eigenvalues --   -0.43286  -0.43226  -0.43100  -0.43079  -0.43036
 Alpha  occ. eigenvalues --   -0.42705  -0.42677  -0.42645  -0.42582  -0.42573
 Alpha  occ. eigenvalues --   -0.42492  -0.42443  -0.42433  -0.42271  -0.42257
 Alpha  occ. eigenvalues --   -0.42225  -0.42004  -0.41885  -0.41829  -0.41813
 Alpha  occ. eigenvalues --   -0.41214  -0.41190  -0.41145  -0.41040  -0.40538
 Alpha  occ. eigenvalues --   -0.40525  -0.40504  -0.40403  -0.39424  -0.39399
 Alpha  occ. eigenvalues --   -0.36875  -0.32544  -0.28806  -0.24523  -0.24494
 Alpha  occ. eigenvalues --   -0.23255
 Alpha virt. eigenvalues --   -0.09457  -0.09258  -0.08353  -0.08302  -0.06928
 Alpha virt. eigenvalues --   -0.06860  -0.06773  -0.04447  -0.04148  -0.04120
 Alpha virt. eigenvalues --   -0.03675  -0.03513  -0.03427  -0.03186  -0.03071

 Mulliken charges:
               1
     1  Cl  -0.932108
     2  C   -0.078321
     3  C    0.040371
     4  C   -0.075944
     5  C   -0.033072
     6  C   -0.030857
     7  C   -0.050050
     8  H    0.028569
     9  H    0.030037
    10  H    0.040514
    11  H    0.036835
    12  H    0.039553
    13  C   -0.091650
    14  C    0.016030
    15  H    0.020163
    16  H    0.040308
    17  H    0.036867
    18  O   -0.663093
    19  O   -0.659648
    20  O   -0.654634
    21  O   -0.661380
    22  W    1.734338
    23  W    1.669970
    24  W    1.680036
    25  W    1.690358
    26  W    1.675186
    27  W    1.726671
    28  W    1.621181
    29  W    1.683017
    30  O   -0.321322
    31  O   -0.365820
    32  O   -0.365845
    33  O   -0.363186
    34  O   -0.664216
    35  O   -0.670064
    36  O   -0.660922
    37  O   -0.662614
    38  O   -0.366083
    39  O   -0.365807
    40  O   -0.293400
    41  O   -0.365283
    42  O   -0.669643
    43  O   -0.662487
    44  O   -0.658620
    45  O   -0.665409
    46  O   -0.366110
    47  O   -0.321015
    48  O   -0.354817
    49  O   -0.363980
    50  W    1.671651
    51  W    1.674650
    52  W    1.678509
    53  W    1.682890
    54  O   -0.723097
    55  O   -0.706556
    56  O   -0.725910
    57  O   -0.721244
    58  O   -0.706847
    59  O   -0.725762
    60  O   -0.724402
    61  O   -0.720275
    62  O   -0.724102
    63  O   -0.708365
    64  O   -0.722822
    65  O   -0.726144
    66  O   -0.801681
    67  O   -0.800923
    68  O   -0.799247
    69  O   -0.809422
    70  K    0.866609
    71  K    0.866552
    72  K    0.862966
    73  V    1.190368
 Sum of Mulliken charges =  -1.00000

 Dipole moment (field-independent basis, Debye):
    X=             51.9483    Y=            -51.1379    Z=            -38.4888  Tot=             82.4323
 Quadrupole moment (field-independent basis, Debye-Ang):
   XX=          -1073.2448   YY=           -875.7621   ZZ=           -909.7124
   XY=            457.8399   XZ=            465.3103   YZ=           -475.7686

 Normal termination of Gaussian 16 at Sun Jun  2 03:01:55 2024.
