 Gaussian 16, Revision C.01,
 Gaussian 16:  ES64L-G16RevC.01  3-Jul-2019

 ----------------------------------------------------------------------
 # def2svp wb97xd scrf=(smd,solvent=acetonitrile) g09default scf=(xqc,m
 axcycle=64) force guess=read nosymm
 ----------------------------------------------------------------------

 ----------
 Title Card
 ----------
 Symbolic Z-matrix:
 Charge = -1 Multiplicity = 1

                          Input orientation:
 ---------------------------------------------------------------------
 Center     Atomic      Atomic             Coordinates (Angstroms)
 Number     Number       Type             X           Y           Z
 ---------------------------------------------------------------------
      1         17           0       -9.963726    8.010319   10.498490
      2          6           0       -8.313309    4.237556   12.231243
      3          6           0       -9.080405    3.916227   11.096795
      4          6           0      -10.011898    2.867308   11.199876
      5          6           0      -10.189871    2.180944   12.396780
      6          6           0       -9.431074    2.521738   13.516945
      7          6           0       -8.487660    3.547350   13.426491
      8          1           0       -7.570945    5.036949   12.181258
      9          1           0      -10.601208    2.592204   10.320594
     10          1           0      -10.924059    1.374268   12.457682
     11          1           0       -9.568175    1.984442   14.457522
     12          1           0       -7.888201    3.816054   14.299829
     13          6           0       -8.953024    4.629929    9.825234
     14          6           0       -8.146072    5.677293    9.573709
     15          1           0       -9.593430    4.258747    9.017696
     16          1           0       -8.103313    6.119062    8.576883
     17          1           0       -7.442182    6.071450   10.310510
     18          8           0       -1.004552   -1.763941    7.457134
     19          8           0       -8.412730   -1.329448    7.461248
     20          8           0       -7.049707    1.346667   10.486819
     21          8           0       -2.331966   -4.358361   10.560731
     22         74           0       -3.419386    0.730428    6.488554
     23         74           0       -6.009767   -3.827696    6.579512
     24         74           0       -3.630559    0.912749   11.412896
     25         74           0       -5.777010   -3.865354   11.472174
     26         74           0       -2.466045   -2.553389    6.386038
     27         74           0       -6.943643   -0.537965    6.355002
     28         74           0       -6.825064   -0.249079   11.584130
     29         74           0       -2.571043   -2.698315   11.623758
     30          8           0       -3.185568    1.927485    5.321387
     31          8           0       -6.149733   -5.075725    5.435356
     32          8           0       -2.718882    1.766856   12.565052
     33          8           0       -6.679892   -4.684338   12.655581
     34          8           0       -2.688240   -0.874010    5.584085
     35          8           0       -6.718300   -2.271616    5.626830
     36          8           0       -5.322304    0.566617   12.366614
     37          8           0       -4.063298   -3.515775   12.410151
     38          8           0        0.294877    0.001733    9.268699
     39          8           0       -9.716749   -3.022308    9.322159
     40          8           0       -6.382177    3.417782    8.650550
     41          8           0       -2.973159   -6.456588    8.758050
     42          8           0       -1.803473    0.777466    7.477460
     43          8           0       -7.613638   -3.878009    7.554869
     44          8           0       -4.529130    2.220061   10.431130
     45          8           0       -4.864253   -5.214489   10.525302
     46          8           0       -1.627973   -3.479944    5.233738
     47          8           0       -7.835802    0.259726    5.164509
     48          8           0       -8.040024   -0.158463   12.765681
     49          8           0       -1.335875   -2.827200   12.783504
     50         74           0       -1.265813   -0.516867    8.839998
     51         74           0       -8.156998   -2.514152    8.877046
     52         74           0       -5.915721    1.849168    9.047518
     53         74           0       -3.472704   -4.885166    9.169872
     54          8           0       -4.236172   -3.092660    6.068756
     55          8           0       -5.172062   -0.036311    6.007270
     56          8           0       -6.182050   -1.998348   11.921132
     57          8           0       -3.184829   -0.953916   11.935775
     58          8           0       -4.380542    1.584314    7.849207
     59          8           0       -5.007575   -4.675000    7.925597
     60          8           0       -2.340975    0.599058   10.081411
     61          8           0       -7.065960   -3.611602   10.138574
     62          8           0       -2.579087   -3.873540    7.861971
     63          8           0       -6.836321    0.783650    7.806498
     64          8           0       -7.841607   -1.173033   10.153732
     65          8           0       -1.575953   -1.839963   10.146793
     66          8           0       -3.380017   -1.133381    8.009774
     67          8           0       -6.033949   -1.950641    8.037549
     68          8           0       -5.132203   -0.196568    9.952192
     69          8           0       -4.249214   -2.825554    9.979921
     70         19           0       -3.227960   -6.131641    5.656199
     71         19           0       -0.134214    0.047873   12.357195
     72         19           0       -9.281414   -2.918778   12.423896
     73         23           0       -4.701825   -1.522748    8.991760
 ---------------------------------------------------------------------

 SCF Done:  E(UwB97XD) =  -7327.70067230     A.U. after   42 cycles

 Alpha  occ. eigenvalues --  -19.24708 -18.94178 -18.93077 -18.93066 -13.36598
 Alpha  occ. eigenvalues --  -13.36570 -13.36546 -10.69524 -10.69520 -10.69519
 Alpha  occ. eigenvalues --  -10.69497 -10.69493 -10.69492 -10.69474 -10.69470
 Alpha  occ. eigenvalues --  -10.69467 -10.32782 -10.32125 -10.31751 -10.30849
 Alpha  occ. eigenvalues --  -10.30833 -10.30817 -10.30451 -10.30374  -9.52701
 Alpha  occ. eigenvalues --   -7.27587  -7.27238  -7.27232  -3.21055  -3.21029
 Alpha  occ. eigenvalues --   -3.21026  -3.21022  -3.21000  -3.20979  -3.20977
 Alpha  occ. eigenvalues --   -3.20970  -3.20965  -3.20828  -3.20802  -3.20780
 Alpha  occ. eigenvalues --   -2.78874  -1.85300  -1.85270  -1.85246  -1.85221
 Alpha  occ. eigenvalues --   -1.85096  -1.85052  -1.85032  -1.85012  -1.84998
 Alpha  occ. eigenvalues --   -1.84993  -1.84966  -1.84905  -1.84356  -1.84243
 Alpha  occ. eigenvalues --   -1.84229  -1.84224  -1.84184  -1.84178  -1.84107
 Alpha  occ. eigenvalues --   -1.84092  -1.84071  -1.84060  -1.84039  -1.84026
 Alpha  occ. eigenvalues --   -1.83905  -1.83879  -1.83863  -1.83858  -1.83820
 Alpha  occ. eigenvalues --   -1.83787  -1.83768  -1.83764  -1.83746  -1.83647
 Alpha  occ. eigenvalues --   -1.83641  -1.83628  -1.82027  -1.81689  -1.81674
 Alpha  occ. eigenvalues --   -1.50294  -1.50267  -1.50244  -1.08605  -1.06976
 Alpha  occ. eigenvalues --   -1.06934  -1.06911  -1.05990  -1.05975  -1.05940
 Alpha  occ. eigenvalues --   -1.04552  -1.04544  -1.04540  -1.03953  -1.03938
 Alpha  occ. eigenvalues --   -1.03719  -1.03349  -1.03309  -1.03288  -1.03025
 Alpha  occ. eigenvalues --   -1.02999  -1.02246  -1.02235  -1.02203  -1.02050
 Alpha  occ. eigenvalues --   -1.02002  -1.01973  -1.01901  -1.01876  -1.01773
 Alpha  occ. eigenvalues --   -1.01731  -1.01721  -1.01606  -1.01557  -1.01537
 Alpha  occ. eigenvalues --   -1.01285  -1.00810  -1.00748  -1.00702  -1.00690
 Alpha  occ. eigenvalues --   -1.00024  -0.99952  -0.99893  -0.96066  -0.89160
 Alpha  occ. eigenvalues --   -0.85731  -0.85704  -0.85687  -0.85581  -0.85574
 Alpha  occ. eigenvalues --   -0.85554  -0.85550  -0.85537  -0.85517  -0.84162
 Alpha  occ. eigenvalues --   -0.82253  -0.81063  -0.71813  -0.69518  -0.64952
 Alpha  occ. eigenvalues --   -0.62284  -0.61665  -0.61629  -0.61591  -0.60515
 Alpha  occ. eigenvalues --   -0.58945  -0.58933  -0.58914  -0.58867  -0.58798
 Alpha  occ. eigenvalues --   -0.58743  -0.58731  -0.58682  -0.58525  -0.57372
 Alpha  occ. eigenvalues --   -0.57339  -0.57309  -0.57023  -0.56662  -0.56470
 Alpha  occ. eigenvalues --   -0.56426  -0.56388  -0.56011  -0.55862  -0.55354
 Alpha  occ. eigenvalues --   -0.55348  -0.55315  -0.54318  -0.54170  -0.54144
 Alpha  occ. eigenvalues --   -0.53960  -0.53679  -0.53632  -0.53608  -0.52685
 Alpha  occ. eigenvalues --   -0.52592  -0.52569  -0.52479  -0.52433  -0.51474
 Alpha  occ. eigenvalues --   -0.51461  -0.51445  -0.51369  -0.51310  -0.50668
 Alpha  occ. eigenvalues --   -0.50537  -0.50516  -0.50456  -0.50359  -0.50255
 Alpha  occ. eigenvalues --   -0.50214  -0.50059  -0.50003  -0.49995  -0.49731
 Alpha  occ. eigenvalues --   -0.49639  -0.49614  -0.49479  -0.49448  -0.49289
 Alpha  occ. eigenvalues --   -0.49257  -0.49187  -0.49099  -0.49060  -0.48976
 Alpha  occ. eigenvalues --   -0.48674  -0.48521  -0.48492  -0.48439  -0.47682
 Alpha  occ. eigenvalues --   -0.47653  -0.47117  -0.46467  -0.46034  -0.46009
 Alpha  occ. eigenvalues --   -0.45861  -0.45750  -0.45670  -0.45583  -0.45185
 Alpha  occ. eigenvalues --   -0.45147  -0.45135  -0.44817  -0.44607  -0.44478
 Alpha  occ. eigenvalues --   -0.44459  -0.44441  -0.44266  -0.44215  -0.44199
 Alpha  occ. eigenvalues --   -0.43442  -0.42985  -0.42554  -0.42505  -0.42450
 Alpha  occ. eigenvalues --   -0.42309  -0.42171  -0.42159  -0.42046  -0.41633
 Alpha  occ. eigenvalues --   -0.41611  -0.41564  -0.41020  -0.40975  -0.40788
 Alpha  occ. eigenvalues --   -0.40743  -0.40740  -0.40390  -0.40381  -0.40328
 Alpha  occ. eigenvalues --   -0.40206  -0.40173  -0.40147  -0.40123  -0.39853
 Alpha  occ. eigenvalues --   -0.39346  -0.39277  -0.39258  -0.39146  -0.39054
 Alpha  occ. eigenvalues --   -0.38932  -0.38899  -0.38834  -0.38770  -0.38713
 Alpha  occ. eigenvalues --   -0.38306  -0.38275  -0.38243  -0.37812  -0.37189
 Alpha  occ. eigenvalues --   -0.37181  -0.34809  -0.34792  -0.33552  -0.29847
 Alpha  occ. eigenvalues --   -0.25842
 Alpha virt. eigenvalues --   -0.12217  -0.06238  -0.06196  -0.04790  -0.04706
 Alpha virt. eigenvalues --   -0.04607  -0.01499  -0.01398  -0.01330  -0.01076
 Alpha virt. eigenvalues --   -0.00905  -0.00871  -0.00821  -0.00124  -0.00056

  Beta  occ. eigenvalues -- -197.10923-129.99188-129.99161-129.99147-101.62705
  Beta  occ. eigenvalues --  -22.43338 -19.28500 -19.28487 -19.28452 -19.28373
  Beta  occ. eigenvalues --  -19.28366 -19.28344 -19.28342 -19.28340 -19.28322
  Beta  occ. eigenvalues --  -19.28234 -19.28198 -19.28117 -19.26941 -19.26908
  Beta  occ. eigenvalues --  -19.26894 -19.26889 -19.26875 -19.26871 -19.26841
  Beta  occ. eigenvalues --  -19.26838 -19.26827 -19.26803 -19.26797 -19.26790
  Beta  occ. eigenvalues --  -19.26784 -19.26782 -19.26781 -19.26778 -19.26764
  Beta  occ. eigenvalues --  -19.26751 -19.26733 -19.26725 -19.26721 -19.26717
  Beta  occ. eigenvalues --  -19.26650 -19.26605 -19.24785 -19.24723 -19.24711
  Beta  occ. eigenvalues --  -19.24683 -18.93833 -18.91618 -18.91597 -13.36598
  Beta  occ. eigenvalues --  -13.36570 -13.36546 -10.69524 -10.69520 -10.69519
  Beta  occ. eigenvalues --  -10.69497 -10.69493 -10.69492 -10.69474 -10.69470
  Beta  occ. eigenvalues --  -10.69467 -10.33011 -10.32288 -10.31710 -10.30939
  Beta  occ. eigenvalues --  -10.30934 -10.30901 -10.30403 -10.30324  -9.53162
  Beta  occ. eigenvalues --   -7.29037  -7.27553  -7.27547  -3.21055  -3.21025
  Beta  occ. eigenvalues --   -3.21024  -3.21021  -3.20995  -3.20973  -3.20972
  Beta  occ. eigenvalues --   -3.20964  -3.20959  -3.20828  -3.20799  -3.20775
  Beta  occ. eigenvalues --   -2.74809  -1.85295  -1.85265  -1.85242  -1.85212
  Beta  occ. eigenvalues --   -1.85090  -1.85047  -1.85025  -1.85004  -1.84991
  Beta  occ. eigenvalues --   -1.84985  -1.84962  -1.84896  -1.84353  -1.84241
  Beta  occ. eigenvalues --   -1.84227  -1.84220  -1.84181  -1.84175  -1.84104
  Beta  occ. eigenvalues --   -1.84090  -1.84068  -1.84057  -1.84036  -1.84023
  Beta  occ. eigenvalues --   -1.83902  -1.83875  -1.83861  -1.83855  -1.83817
  Beta  occ. eigenvalues --   -1.83784  -1.83765  -1.83761  -1.83743  -1.83645
  Beta  occ. eigenvalues --   -1.83638  -1.83625  -1.80689  -1.75954  -1.75903
  Beta  occ. eigenvalues --   -1.50294  -1.50267  -1.50244  -1.08587  -1.06957
  Beta  occ. eigenvalues --   -1.06911  -1.06884  -1.05989  -1.05973  -1.05939
  Beta  occ. eigenvalues --   -1.04553  -1.04545  -1.04539  -1.03952  -1.03940
  Beta  occ. eigenvalues --   -1.03652  -1.03315  -1.03271  -1.03253  -1.03025
  Beta  occ. eigenvalues --   -1.02991  -1.02227  -1.02210  -1.02186  -1.02042
  Beta  occ. eigenvalues --   -1.01998  -1.01960  -1.01897  -1.01864  -1.01769
  Beta  occ. eigenvalues --   -1.01729  -1.01717  -1.01606  -1.01554  -1.01522
  Beta  occ. eigenvalues --   -1.01285  -1.00773  -1.00747  -1.00701  -1.00689
  Beta  occ. eigenvalues --   -0.99893  -0.99818  -0.99774  -0.96263  -0.89787
  Beta  occ. eigenvalues --   -0.85731  -0.85704  -0.85687  -0.85581  -0.85574
  Beta  occ. eigenvalues --   -0.85554  -0.85550  -0.85537  -0.85517  -0.84633
  Beta  occ. eigenvalues --   -0.84247  -0.82639  -0.72061  -0.69627  -0.65177
  Beta  occ. eigenvalues --   -0.62284  -0.61665  -0.61629  -0.61590  -0.60693
  Beta  occ. eigenvalues --   -0.58936  -0.58932  -0.58912  -0.58783  -0.58750
  Beta  occ. eigenvalues --   -0.58721  -0.58709  -0.58648  -0.58525  -0.57346
  Beta  occ. eigenvalues --   -0.57182  -0.57142  -0.56977  -0.56831  -0.56471
  Beta  occ. eigenvalues --   -0.56395  -0.56353  -0.55818  -0.55601  -0.55335
  Beta  occ. eigenvalues --   -0.55330  -0.55315  -0.54479  -0.54165  -0.54133
  Beta  occ. eigenvalues --   -0.53947  -0.53644  -0.53612  -0.53568  -0.52729
  Beta  occ. eigenvalues --   -0.52620  -0.52557  -0.52460  -0.52425  -0.51466
  Beta  occ. eigenvalues --   -0.51433  -0.51422  -0.51303  -0.51242  -0.50822
  Beta  occ. eigenvalues --   -0.50475  -0.50453  -0.50397  -0.50307  -0.50213
  Beta  occ. eigenvalues --   -0.50155  -0.50029  -0.50000  -0.49968  -0.49678
  Beta  occ. eigenvalues --   -0.49616  -0.49592  -0.49471  -0.49437  -0.49291
  Beta  occ. eigenvalues --   -0.49233  -0.49187  -0.49068  -0.49044  -0.48951
  Beta  occ. eigenvalues --   -0.48667  -0.48530  -0.48488  -0.48430  -0.47769
  Beta  occ. eigenvalues --   -0.47626  -0.47536  -0.45899  -0.45887  -0.45792
  Beta  occ. eigenvalues --   -0.45778  -0.45665  -0.45553  -0.45187  -0.45165
  Beta  occ. eigenvalues --   -0.45141  -0.45045  -0.44817  -0.44607  -0.44460
  Beta  occ. eigenvalues --   -0.44423  -0.44400  -0.44261  -0.44193  -0.44171
  Beta  occ. eigenvalues --   -0.43437  -0.43071  -0.42501  -0.42475  -0.42403
  Beta  occ. eigenvalues --   -0.42251  -0.42132  -0.42119  -0.42112  -0.41612
  Beta  occ. eigenvalues --   -0.41598  -0.41545  -0.41282  -0.41024  -0.40926
  Beta  occ. eigenvalues --   -0.40743  -0.40711  -0.40643  -0.40373  -0.40369
  Beta  occ. eigenvalues --   -0.40303  -0.40158  -0.40134  -0.40114  -0.39796
  Beta  occ. eigenvalues --   -0.39632  -0.39348  -0.39168  -0.39117  -0.39093
  Beta  occ. eigenvalues --   -0.38904  -0.38874  -0.38840  -0.38769  -0.38714
  Beta  occ. eigenvalues --   -0.38677  -0.38304  -0.38270  -0.38240  -0.37756
  Beta  occ. eigenvalues --   -0.37191  -0.37176  -0.35775  -0.35761  -0.33787
  Beta  occ. eigenvalues --   -0.30753
  Beta virt. eigenvalues --   -0.06236  -0.06197  -0.04789  -0.04705  -0.04606
  Beta virt. eigenvalues --   -0.01495  -0.01393  -0.01326  -0.01070  -0.00899
  Beta virt. eigenvalues --   -0.00868  -0.00818  -0.00118  -0.00043  -0.00005

 Mulliken charges and spin densities:
               1          2
     1  Cl  -0.344822  -0.627754
     2  C   -0.037584  -0.080687
     3  C    0.014799   0.044789
     4  C   -0.035931  -0.077123
     5  C   -0.030801   0.049672
     6  C    0.006535  -0.098380
     7  C   -0.048597   0.049277
     8  H    0.046979   0.003452
     9  H    0.049318   0.003319
    10  H    0.053881  -0.001749
    11  H    0.054907   0.004325
    12  H    0.052794  -0.001713
    13  C   -0.000101  -0.202727
    14  C   -0.030600  -0.077712
    15  H    0.072392   0.008696
    16  H    0.094222   0.004328
    17  H    0.091524   0.003452
    18  O   -0.671888  -0.000570
    19  O   -0.668554  -0.000500
    20  O   -0.665759  -0.001843
    21  O   -0.670455  -0.000524
    22  W    1.717745   0.000356
    23  W    1.655682   0.000508
    24  W    1.667797   0.000191
    25  W    1.676507   0.000194
    26  W    1.661557   0.002735
    27  W    1.709131   0.002493
    28  W    1.613001   0.003271
    29  W    1.668918   0.002883
    30  O   -0.350993  -0.000536
    31  O   -0.394128  -0.000559
    32  O   -0.394071  -0.000606
    33  O   -0.391792  -0.000555
    34  O   -0.672603  -0.000312
    35  O   -0.677396  -0.000078
    36  O   -0.669805  -0.000148
    37  O   -0.671534  -0.000238
    38  O   -0.395835   0.002033
    39  O   -0.395761   0.002049
    40  O   -0.339554  -0.000942
    41  O   -0.395269   0.002034
    42  O   -0.677254   0.000092
    43  O   -0.671065   0.000185
    44  O   -0.667273   0.000311
    45  O   -0.673724   0.000111
    46  O   -0.396084   0.002341
    47  O   -0.352588   0.002233
    48  O   -0.387647   0.001817
    49  O   -0.394067   0.002398
    50  W    1.657553   0.002734
    51  W    1.660497   0.002622
    52  W    1.673635   0.003737
    53  W    1.668472   0.002553
    54  O   -0.721100   0.000091
    55  O   -0.705119   0.000002
    56  O   -0.722581   0.000159
    57  O   -0.719533   0.000051
    58  O   -0.704154  -0.000012
    59  O   -0.723030   0.000147
    60  O   -0.721921   0.000199
    61  O   -0.718034   0.000194
    62  O   -0.722527  -0.000168
    63  O   -0.706732  -0.000010
    64  O   -0.721955  -0.000187
    65  O   -0.724093  -0.000200
    66  O   -0.884214   0.005085
    67  O   -0.884107   0.007173
    68  O   -0.882521   0.007054
    69  O   -0.889134   0.006528
    70  K    0.853126   0.000188
    71  K    0.853269   0.000209
    72  K    0.849329   0.000231
    73  V    1.200722   0.937332
 Sum of Mulliken charges =  -1.00000   0.00000

 Dipole moment (field-independent basis, Debye):
    X=             29.2959    Y=            -13.7970    Z=            -30.6657  Tot=             44.5981
 Quadrupole moment (field-independent basis, Debye-Ang):
   XX=           -778.9537   YY=           -701.0672   ZZ=           -781.1119
   XY=            132.2263   XZ=            186.5861   YZ=            -94.0346

 Normal termination of Gaussian 16 at Sun Jun  2 02:51:24 2024.
