 Gaussian 16, Revision C.01,
 Gaussian 16:  ES64L-G16RevC.01  3-Jul-2019

 ----------------------------------------------------------------------
 # def2svp wb97xd scrf=(smd,solvent=acetonitrile) g09default scf=(xqc,m
 axcycle=64) force guess=read nosymm
 ----------------------------------------------------------------------

 ----------
 Title Card
 ----------
 Symbolic Z-matrix:
 Charge = -1 Multiplicity = 1

                          Input orientation:
 ---------------------------------------------------------------------
 Center     Atomic      Atomic             Coordinates (Angstroms)
 Number     Number       Type             X           Y           Z
 ---------------------------------------------------------------------
      1         17           0       -9.955466    8.029977   10.503845
      2          6           0       -8.314458    4.237143   12.230657
      3          6           0       -9.082897    3.916058   11.097080
      4          6           0      -10.013338    2.866344   11.200677
      5          6           0      -10.190957    2.180728   12.397835
      6          6           0       -9.432587    2.522903   13.517980
      7          6           0       -8.488291    3.547659   13.426378
      8          1           0       -7.570867    5.035223   12.178539
      9          1           0      -10.601501    2.589543   10.320831
     10          1           0      -10.923395    1.372214   12.459073
     11          1           0       -9.569597    1.986212   14.458998
     12          1           0       -7.886637    3.815187   14.298654
     13          6           0       -8.957141    4.630871    9.825847
     14          6           0       -8.154834    5.682352    9.574661
     15          1           0       -9.596524    4.258284    9.018330
     16          1           0       -8.113062    6.121746    8.576590
     17          1           0       -7.455918    6.083350   10.312190
     18          8           0       -1.002931   -1.765192    7.457532
     19          8           0       -8.412775   -1.329926    7.461081
     20          8           0       -7.048691    1.346915   10.485926
     21          8           0       -2.331708   -4.359852   10.560040
     22         74           0       -3.418591    0.727295    6.487455
     23         74           0       -6.009034   -3.826764    6.578573
     24         74           0       -3.630156    0.910960   11.413694
     25         74           0       -5.775999   -3.864423   11.472113
     26         74           0       -2.464361   -2.555355    6.387355
     27         74           0       -6.943640   -0.538174    6.356556
     28         74           0       -6.825087   -0.248801   11.582113
     29         74           0       -2.569824   -2.699576   11.622214
     30          8           0       -3.183640    1.923823    5.319827
     31          8           0       -6.149615   -5.074624    5.434190
     32          8           0       -2.719229    1.764798   12.566366
     33          8           0       -6.678258   -4.683093   12.655832
     34          8           0       -2.686254   -0.876078    5.583630
     35          8           0       -6.718105   -2.271530    5.626316
     36          8           0       -5.322216    0.566270   12.366288
     37          8           0       -4.062491   -3.516405   12.409644
     38          8           0        0.294905    0.002028    9.268901
     39          8           0       -9.716205   -3.023472    9.321571
     40          8           0       -6.380434    3.417959    8.654002
     41          8           0       -2.974885   -6.458051    8.759256
     42          8           0       -1.802178    0.776480    7.476888
     43          8           0       -7.613441   -3.878635    7.554076
     44          8           0       -4.527373    2.219968   10.431727
     45          8           0       -4.864847   -5.215143   10.525085
     46          8           0       -1.626393   -3.482897    5.235699
     47          8           0       -7.836482    0.259336    5.166079
     48          8           0       -8.040386   -0.157240   12.762958
     49          8           0       -1.334766   -2.829956   12.781656
     50         74           0       -1.265516   -0.516805    8.839469
     51         74           0       -8.156278   -2.515669    8.876383
     52         74           0       -5.912616    1.849330    9.047896
     53         74           0       -3.473905   -4.886306    9.170031
     54          8           0       -4.235006   -3.093315    6.068401
     55          8           0       -5.171409   -0.037692    6.006981
     56          8           0       -6.181124   -1.997767   11.920261
     57          8           0       -3.183655   -0.955092   11.936012
     58          8           0       -4.378809    1.583107    7.848639
     59          8           0       -5.007468   -4.674905    7.925142
     60          8           0       -2.340608    0.598071   10.081526
     61          8           0       -7.065453   -3.611452   10.138229
     62          8           0       -2.578702   -3.874546    7.862614
     63          8           0       -6.834590    0.783288    7.807136
     64          8           0       -7.840688   -1.172942   10.152059
     65          8           0       -1.576087   -1.841276   10.145502
     66          8           0       -3.378793   -1.134589    8.008757
     67          8           0       -6.033731   -1.950782    8.036982
     68          8           0       -5.130844   -0.196583    9.952093
     69          8           0       -4.248550   -2.826079    9.979657
     70         19           0       -3.226875   -6.133039    5.654880
     71         19           0       -0.131586    0.049070   12.357746
     72         19           0       -9.282875   -2.915709   12.425626
     73         23           0       -4.701049   -1.523165    8.991043
 ---------------------------------------------------------------------

 SCF Done:  E(RwB97XD) =  -7327.70046307     A.U. after   12 cycles

 Alpha  occ. eigenvalues -- -197.29499-130.00179-130.00169-130.00087-101.47636
 Alpha  occ. eigenvalues --  -22.62619 -19.33675 -19.33662 -19.33656 -19.33627
 Alpha  occ. eigenvalues --  -19.30699 -19.30671 -19.30662 -19.30657 -19.30650
 Alpha  occ. eigenvalues --  -19.30644 -19.30622 -19.30587 -19.30503 -19.30313
 Alpha  occ. eigenvalues --  -19.30286 -19.30057 -19.29320 -19.29316 -19.29287
 Alpha  occ. eigenvalues --  -19.29276 -19.29274 -19.29264 -19.29254 -19.29191
 Alpha  occ. eigenvalues --  -19.29188 -19.29164 -19.29140 -19.29126 -19.29107
 Alpha  occ. eigenvalues --  -19.29106 -19.29100 -19.29094 -19.29077 -19.29061
 Alpha  occ. eigenvalues --  -19.29041 -19.28966 -19.28954 -19.28942 -19.28921
 Alpha  occ. eigenvalues --  -19.28760 -19.11576 -19.11568 -19.11559 -13.37582
 Alpha  occ. eigenvalues --  -13.37573 -13.37481 -10.70511 -10.70504 -10.70504
 Alpha  occ. eigenvalues --  -10.70502 -10.70495 -10.70494 -10.70411 -10.70404
 Alpha  occ. eigenvalues --  -10.70401 -10.29821 -10.29335 -10.29279 -10.29085
 Alpha  occ. eigenvalues --  -10.28998 -10.28986 -10.28163 -10.27672  -9.38091
 Alpha  occ. eigenvalues --   -7.12913  -7.12874  -7.12872  -3.23277  -3.23269
 Alpha  occ. eigenvalues --   -3.23256  -3.23252  -3.23249  -3.23240  -3.23185
 Alpha  occ. eigenvalues --   -3.23182  -3.23136  -3.22910  -3.22907  -3.22654
 Alpha  occ. eigenvalues --   -2.91851  -1.94225  -1.94198  -1.94186  -1.87693
 Alpha  occ. eigenvalues --   -1.87635  -1.87610  -1.87553  -1.87460  -1.87447
 Alpha  occ. eigenvalues --   -1.87437  -1.87402  -1.87358  -1.87223  -1.87192
 Alpha  occ. eigenvalues --   -1.86999  -1.86591  -1.86471  -1.86464  -1.86438
 Alpha  occ. eigenvalues --   -1.86419  -1.86374  -1.86303  -1.86290  -1.86267
 Alpha  occ. eigenvalues --   -1.86251  -1.86223  -1.86191  -1.86108  -1.86087
 Alpha  occ. eigenvalues --   -1.86082  -1.86053  -1.86009  -1.85956  -1.85936
 Alpha  occ. eigenvalues --   -1.85877  -1.85844  -1.85750  -1.85618  -1.85556
 Alpha  occ. eigenvalues --   -1.51264  -1.51255  -1.51164  -1.13059  -1.11298
 Alpha  occ. eigenvalues --   -1.11207  -1.11194  -1.08947  -1.08502  -1.08450
 Alpha  occ. eigenvalues --   -1.08265  -1.07546  -1.07491  -1.07465  -1.06873
 Alpha  occ. eigenvalues --   -1.06845  -1.06821  -1.06284  -1.06248  -1.05295
 Alpha  occ. eigenvalues --   -1.05289  -1.04952  -1.04942  -1.04918  -1.04173
 Alpha  occ. eigenvalues --   -1.04170  -1.04140  -1.03997  -1.03979  -1.03964
 Alpha  occ. eigenvalues --   -1.03919  -1.03864  -1.03843  -1.03728  -1.03684
 Alpha  occ. eigenvalues --   -1.03593  -1.03538  -1.03257  -1.03220  -1.03093
 Alpha  occ. eigenvalues --   -1.03076  -1.03014  -1.02901  -0.94409  -0.86726
 Alpha  occ. eigenvalues --   -0.86716  -0.86631  -0.86567  -0.86539  -0.86534
 Alpha  occ. eigenvalues --   -0.86528  -0.86520  -0.86443  -0.86424  -0.82834
 Alpha  occ. eigenvalues --   -0.79813  -0.70788  -0.69801  -0.68052  -0.64552
 Alpha  occ. eigenvalues --   -0.63915  -0.63866  -0.63853  -0.63318  -0.63286
 Alpha  occ. eigenvalues --   -0.63184  -0.63056  -0.62674  -0.62602  -0.61982
 Alpha  occ. eigenvalues --   -0.61591  -0.61571  -0.61482  -0.61191  -0.61172
 Alpha  occ. eigenvalues --   -0.61136  -0.60385  -0.59434  -0.59416  -0.59404
 Alpha  occ. eigenvalues --   -0.59370  -0.59340  -0.58703  -0.57967  -0.57938
 Alpha  occ. eigenvalues --   -0.57871  -0.57070  -0.57034  -0.56999  -0.56265
 Alpha  occ. eigenvalues --   -0.56219  -0.56065  -0.55673  -0.54828  -0.54771
 Alpha  occ. eigenvalues --   -0.54731  -0.54591  -0.54215  -0.54103  -0.54055
 Alpha  occ. eigenvalues --   -0.54018  -0.53935  -0.53220  -0.53172  -0.53053
 Alpha  occ. eigenvalues --   -0.52979  -0.52872  -0.52693  -0.52633  -0.52596
 Alpha  occ. eigenvalues --   -0.52549  -0.52514  -0.52445  -0.52422  -0.51565
 Alpha  occ. eigenvalues --   -0.51543  -0.51366  -0.51321  -0.51297  -0.51237
 Alpha  occ. eigenvalues --   -0.51162  -0.51131  -0.51021  -0.50726  -0.50547
 Alpha  occ. eigenvalues --   -0.50542  -0.50507  -0.49884  -0.49876  -0.49290
 Alpha  occ. eigenvalues --   -0.49254  -0.49230  -0.49173  -0.49133  -0.49035
 Alpha  occ. eigenvalues --   -0.48881  -0.48066  -0.48013  -0.47901  -0.47701
 Alpha  occ. eigenvalues --   -0.47335  -0.47281  -0.47224  -0.46995  -0.46950
 Alpha  occ. eigenvalues --   -0.46822  -0.46544  -0.46504  -0.46425  -0.46208
 Alpha  occ. eigenvalues --   -0.46144  -0.46087  -0.45617  -0.45070  -0.44890
 Alpha  occ. eigenvalues --   -0.44860  -0.44164  -0.44143  -0.44010  -0.43589
 Alpha  occ. eigenvalues --   -0.43286  -0.43227  -0.43102  -0.43079  -0.43039
 Alpha  occ. eigenvalues --   -0.42705  -0.42676  -0.42646  -0.42584  -0.42577
 Alpha  occ. eigenvalues --   -0.42494  -0.42445  -0.42434  -0.42271  -0.42258
 Alpha  occ. eigenvalues --   -0.42227  -0.42005  -0.41886  -0.41833  -0.41815
 Alpha  occ. eigenvalues --   -0.41221  -0.41186  -0.41144  -0.41038  -0.40537
 Alpha  occ. eigenvalues --   -0.40524  -0.40504  -0.40408  -0.39426  -0.39400
 Alpha  occ. eigenvalues --   -0.36889  -0.32551  -0.28816  -0.24534  -0.24507
 Alpha  occ. eigenvalues --   -0.23288
 Alpha virt. eigenvalues --   -0.09497  -0.09298  -0.08361  -0.08311  -0.06936
 Alpha virt. eigenvalues --   -0.06869  -0.06779  -0.04483  -0.04180  -0.04152
 Alpha virt. eigenvalues --   -0.03680  -0.03518  -0.03432  -0.03191  -0.03080

 Mulliken charges:
               1
     1  Cl  -0.932037
     2  C   -0.078100
     3  C    0.040539
     4  C   -0.075901
     5  C   -0.033115
     6  C   -0.030966
     7  C   -0.049973
     8  H    0.028714
     9  H    0.030241
    10  H    0.040702
    11  H    0.036940
    12  H    0.039677
    13  C   -0.093055
    14  C    0.015684
    15  H    0.020481
    16  H    0.040687
    17  H    0.036540
    18  O   -0.663181
    19  O   -0.659772
    20  O   -0.654621
    21  O   -0.661449
    22  W    1.734630
    23  W    1.670309
    24  W    1.680261
    25  W    1.690648
    26  W    1.675467
    27  W    1.726960
    28  W    1.621110
    29  W    1.683166
    30  O   -0.321320
    31  O   -0.365751
    32  O   -0.365694
    33  O   -0.362832
    34  O   -0.664405
    35  O   -0.670110
    36  O   -0.661108
    37  O   -0.662818
    38  O   -0.366142
    39  O   -0.365762
    40  O   -0.293284
    41  O   -0.365113
    42  O   -0.669679
    43  O   -0.662610
    44  O   -0.658860
    45  O   -0.665486
    46  O   -0.366243
    47  O   -0.321182
    48  O   -0.354862
    49  O   -0.363704
    50  W    1.671867
    51  W    1.674916
    52  W    1.679203
    53  W    1.683032
    54  O   -0.723252
    55  O   -0.706786
    56  O   -0.726008
    57  O   -0.721391
    58  O   -0.707185
    59  O   -0.725955
    60  O   -0.724571
    61  O   -0.720477
    62  O   -0.724276
    63  O   -0.708664
    64  O   -0.723016
    65  O   -0.726275
    66  O   -0.802117
    67  O   -0.801259
    68  O   -0.799473
    69  O   -0.809509
    70  K    0.866747
    71  K    0.866818
    72  K    0.863232
    73  V    1.190779
 Sum of Mulliken charges =  -1.00000

 Dipole moment (field-independent basis, Debye):
    X=             51.9210    Y=            -51.2317    Z=            -38.4818  Tot=             82.4701
 Quadrupole moment (field-independent basis, Debye-Ang):
   XX=          -1072.4558   YY=           -877.2160   ZZ=           -909.5288
   XY=            458.4956   XZ=            465.0501   YZ=           -476.8946

 Normal termination of Gaussian 16 at Sun Jun  2 03:40:15 2024.
