 Gaussian 16, Revision C.01,
 Gaussian 16:  ES64L-G16RevC.01  3-Jul-2019

 ----------------------------------------------------------------------
 # def2svp wb97xd scrf=(smd,solvent=acetonitrile) g09default scf=(xqc,m
 axcycle=64) force guess=read nosymm
 ----------------------------------------------------------------------

 ----------
 Title Card
 ----------
 Symbolic Z-matrix:
 Charge = -1 Multiplicity = 1

                          Input orientation:
 ---------------------------------------------------------------------
 Center     Atomic      Atomic             Coordinates (Angstroms)
 Number     Number       Type             X           Y           Z
 ---------------------------------------------------------------------
      1         17           0       -9.955466    8.029977   10.503845
      2          6           0       -8.314458    4.237143   12.230657
      3          6           0       -9.082897    3.916058   11.097080
      4          6           0      -10.013338    2.866344   11.200677
      5          6           0      -10.190957    2.180728   12.397835
      6          6           0       -9.432587    2.522903   13.517980
      7          6           0       -8.488291    3.547659   13.426378
      8          1           0       -7.570867    5.035223   12.178539
      9          1           0      -10.601501    2.589543   10.320831
     10          1           0      -10.923395    1.372214   12.459073
     11          1           0       -9.569597    1.986212   14.458998
     12          1           0       -7.886637    3.815187   14.298654
     13          6           0       -8.957141    4.630871    9.825847
     14          6           0       -8.154834    5.682352    9.574661
     15          1           0       -9.596524    4.258284    9.018330
     16          1           0       -8.113062    6.121746    8.576590
     17          1           0       -7.455918    6.083350   10.312190
     18          8           0       -1.002931   -1.765192    7.457532
     19          8           0       -8.412775   -1.329926    7.461081
     20          8           0       -7.048691    1.346915   10.485926
     21          8           0       -2.331708   -4.359852   10.560040
     22         74           0       -3.418591    0.727295    6.487455
     23         74           0       -6.009034   -3.826764    6.578573
     24         74           0       -3.630156    0.910960   11.413694
     25         74           0       -5.775999   -3.864423   11.472113
     26         74           0       -2.464361   -2.555355    6.387355
     27         74           0       -6.943640   -0.538174    6.356556
     28         74           0       -6.825087   -0.248801   11.582113
     29         74           0       -2.569824   -2.699576   11.622214
     30          8           0       -3.183640    1.923823    5.319827
     31          8           0       -6.149615   -5.074624    5.434190
     32          8           0       -2.719229    1.764798   12.566366
     33          8           0       -6.678258   -4.683093   12.655832
     34          8           0       -2.686254   -0.876078    5.583630
     35          8           0       -6.718105   -2.271530    5.626316
     36          8           0       -5.322216    0.566270   12.366288
     37          8           0       -4.062491   -3.516405   12.409644
     38          8           0        0.294905    0.002028    9.268901
     39          8           0       -9.716205   -3.023472    9.321571
     40          8           0       -6.380434    3.417959    8.654002
     41          8           0       -2.974885   -6.458051    8.759256
     42          8           0       -1.802178    0.776480    7.476888
     43          8           0       -7.613441   -3.878635    7.554076
     44          8           0       -4.527373    2.219968   10.431727
     45          8           0       -4.864847   -5.215143   10.525085
     46          8           0       -1.626393   -3.482897    5.235699
     47          8           0       -7.836482    0.259336    5.166079
     48          8           0       -8.040386   -0.157240   12.762958
     49          8           0       -1.334766   -2.829956   12.781656
     50         74           0       -1.265516   -0.516805    8.839469
     51         74           0       -8.156278   -2.515669    8.876383
     52         74           0       -5.912616    1.849330    9.047896
     53         74           0       -3.473905   -4.886306    9.170031
     54          8           0       -4.235006   -3.093315    6.068401
     55          8           0       -5.171409   -0.037692    6.006981
     56          8           0       -6.181124   -1.997767   11.920261
     57          8           0       -3.183655   -0.955092   11.936012
     58          8           0       -4.378809    1.583107    7.848639
     59          8           0       -5.007468   -4.674905    7.925142
     60          8           0       -2.340608    0.598071   10.081526
     61          8           0       -7.065453   -3.611452   10.138229
     62          8           0       -2.578702   -3.874546    7.862614
     63          8           0       -6.834590    0.783288    7.807136
     64          8           0       -7.840688   -1.172942   10.152059
     65          8           0       -1.576087   -1.841276   10.145502
     66          8           0       -3.378793   -1.134589    8.008757
     67          8           0       -6.033731   -1.950782    8.036982
     68          8           0       -5.130844   -0.196583    9.952093
     69          8           0       -4.248550   -2.826079    9.979657
     70         19           0       -3.226875   -6.133039    5.654880
     71         19           0       -0.131586    0.049070   12.357746
     72         19           0       -9.282875   -2.915709   12.425626
     73         23           0       -4.701049   -1.523165    8.991043
 ---------------------------------------------------------------------

 SCF Done:  E(UwB97XD) =  -7327.70075540     A.U. after   39 cycles

 Alpha  occ. eigenvalues --  -19.24738 -18.94232 -18.93133 -18.93116 -13.36609
 Alpha  occ. eigenvalues --  -13.36576 -13.36556 -10.69535 -10.69531 -10.69531
 Alpha  occ. eigenvalues --  -10.69503 -10.69499 -10.69498 -10.69484 -10.69480
 Alpha  occ. eigenvalues --  -10.69477 -10.32779 -10.32112 -10.31753 -10.30850
 Alpha  occ. eigenvalues --  -10.30838 -10.30820 -10.30455 -10.30378  -9.52744
 Alpha  occ. eigenvalues --   -7.27631  -7.27279  -7.27274  -3.21054  -3.21028
 Alpha  occ. eigenvalues --   -3.21027  -3.21022  -3.21000  -3.20980  -3.20976
 Alpha  occ. eigenvalues --   -3.20967  -3.20967  -3.20831  -3.20802  -3.20782
 Alpha  occ. eigenvalues --   -2.78916  -1.85302  -1.85272  -1.85247  -1.85222
 Alpha  occ. eigenvalues --   -1.85097  -1.85054  -1.85033  -1.85013  -1.84998
 Alpha  occ. eigenvalues --   -1.84995  -1.84968  -1.84903  -1.84355  -1.84242
 Alpha  occ. eigenvalues --   -1.84229  -1.84223  -1.84184  -1.84178  -1.84107
 Alpha  occ. eigenvalues --   -1.84092  -1.84071  -1.84060  -1.84039  -1.84026
 Alpha  occ. eigenvalues --   -1.83903  -1.83878  -1.83862  -1.83857  -1.83819
 Alpha  occ. eigenvalues --   -1.83787  -1.83767  -1.83763  -1.83747  -1.83646
 Alpha  occ. eigenvalues --   -1.83641  -1.83629  -1.82066  -1.81730  -1.81711
 Alpha  occ. eigenvalues --   -1.50305  -1.50273  -1.50254  -1.08609  -1.06979
 Alpha  occ. eigenvalues --   -1.06938  -1.06914  -1.05992  -1.05976  -1.05941
 Alpha  occ. eigenvalues --   -1.04554  -1.04545  -1.04540  -1.03956  -1.03941
 Alpha  occ. eigenvalues --   -1.03735  -1.03354  -1.03316  -1.03293  -1.03025
 Alpha  occ. eigenvalues --   -1.02997  -1.02251  -1.02240  -1.02208  -1.02051
 Alpha  occ. eigenvalues --   -1.02001  -1.01971  -1.01902  -1.01875  -1.01772
 Alpha  occ. eigenvalues --   -1.01731  -1.01720  -1.01609  -1.01557  -1.01535
 Alpha  occ. eigenvalues --   -1.01284  -1.00815  -1.00745  -1.00700  -1.00688
 Alpha  occ. eigenvalues --   -1.00038  -0.99966  -0.99911  -0.96068  -0.89152
 Alpha  occ. eigenvalues --   -0.85741  -0.85709  -0.85695  -0.85592  -0.85583
 Alpha  occ. eigenvalues --   -0.85560  -0.85556  -0.85547  -0.85526  -0.84164
 Alpha  occ. eigenvalues --   -0.82253  -0.81092  -0.71812  -0.69520  -0.64952
 Alpha  occ. eigenvalues --   -0.62285  -0.61665  -0.61631  -0.61594  -0.60513
 Alpha  occ. eigenvalues --   -0.58946  -0.58932  -0.58913  -0.58866  -0.58800
 Alpha  occ. eigenvalues --   -0.58747  -0.58733  -0.58684  -0.58529  -0.57382
 Alpha  occ. eigenvalues --   -0.57350  -0.57321  -0.57034  -0.56656  -0.56475
 Alpha  occ. eigenvalues --   -0.56431  -0.56393  -0.56021  -0.55871  -0.55358
 Alpha  occ. eigenvalues --   -0.55350  -0.55319  -0.54318  -0.54172  -0.54146
 Alpha  occ. eigenvalues --   -0.53959  -0.53688  -0.53640  -0.53616  -0.52683
 Alpha  occ. eigenvalues --   -0.52589  -0.52570  -0.52478  -0.52432  -0.51473
 Alpha  occ. eigenvalues --   -0.51460  -0.51447  -0.51371  -0.51309  -0.50667
 Alpha  occ. eigenvalues --   -0.50534  -0.50518  -0.50458  -0.50361  -0.50255
 Alpha  occ. eigenvalues --   -0.50214  -0.50057  -0.50002  -0.49992  -0.49728
 Alpha  occ. eigenvalues --   -0.49637  -0.49609  -0.49483  -0.49450  -0.49293
 Alpha  occ. eigenvalues --   -0.49262  -0.49192  -0.49103  -0.49066  -0.48982
 Alpha  occ. eigenvalues --   -0.48668  -0.48518  -0.48485  -0.48433  -0.47680
 Alpha  occ. eigenvalues --   -0.47650  -0.47120  -0.46472  -0.46038  -0.46011
 Alpha  occ. eigenvalues --   -0.45864  -0.45754  -0.45673  -0.45584  -0.45186
 Alpha  occ. eigenvalues --   -0.45148  -0.45136  -0.44814  -0.44605  -0.44480
 Alpha  occ. eigenvalues --   -0.44464  -0.44442  -0.44271  -0.44212  -0.44197
 Alpha  occ. eigenvalues --   -0.43452  -0.42986  -0.42557  -0.42507  -0.42452
 Alpha  occ. eigenvalues --   -0.42315  -0.42177  -0.42164  -0.42043  -0.41635
 Alpha  occ. eigenvalues --   -0.41615  -0.41567  -0.41020  -0.40975  -0.40789
 Alpha  occ. eigenvalues --   -0.40743  -0.40741  -0.40389  -0.40379  -0.40326
 Alpha  occ. eigenvalues --   -0.40206  -0.40173  -0.40147  -0.40121  -0.39853
 Alpha  occ. eigenvalues --   -0.39350  -0.39280  -0.39264  -0.39147  -0.39064
 Alpha  occ. eigenvalues --   -0.38932  -0.38899  -0.38836  -0.38780  -0.38717
 Alpha  occ. eigenvalues --   -0.38304  -0.38274  -0.38242  -0.37814  -0.37190
 Alpha  occ. eigenvalues --   -0.37181  -0.34838  -0.34822  -0.33556  -0.29839
 Alpha  occ. eigenvalues --   -0.25887
 Alpha virt. eigenvalues --   -0.12265  -0.06244  -0.06204  -0.04796  -0.04713
 Alpha virt. eigenvalues --   -0.04612  -0.01501  -0.01397  -0.01329  -0.01079
 Alpha virt. eigenvalues --   -0.00907  -0.00873  -0.00823  -0.00121  -0.00056

  Beta  occ. eigenvalues -- -197.10979-129.99199-129.99167-129.99157-101.62749
  Beta  occ. eigenvalues --  -22.43391 -19.28501 -19.28487 -19.28455 -19.28375
  Beta  occ. eigenvalues --  -19.28366 -19.28344 -19.28341 -19.28340 -19.28321
  Beta  occ. eigenvalues --  -19.28234 -19.28202 -19.28112 -19.26937 -19.26904
  Beta  occ. eigenvalues --  -19.26889 -19.26883 -19.26872 -19.26870 -19.26840
  Beta  occ. eigenvalues --  -19.26838 -19.26824 -19.26800 -19.26790 -19.26788
  Beta  occ. eigenvalues --  -19.26784 -19.26780 -19.26779 -19.26775 -19.26758
  Beta  occ. eigenvalues --  -19.26745 -19.26728 -19.26724 -19.26722 -19.26716
  Beta  occ. eigenvalues --  -19.26650 -19.26606 -19.24807 -19.24754 -19.24730
  Beta  occ. eigenvalues --  -19.24713 -18.93887 -18.91678 -18.91644 -13.36609
  Beta  occ. eigenvalues --  -13.36576 -13.36556 -10.69535 -10.69531 -10.69531
  Beta  occ. eigenvalues --  -10.69503 -10.69499 -10.69498 -10.69484 -10.69480
  Beta  occ. eigenvalues --  -10.69477 -10.33007 -10.32273 -10.31713 -10.30944
  Beta  occ. eigenvalues --  -10.30936 -10.30904 -10.30406 -10.30328  -9.53205
  Beta  occ. eigenvalues --   -7.29084  -7.27595  -7.27590  -3.21054  -3.21028
  Beta  occ. eigenvalues --   -3.21022  -3.21020  -3.20995  -3.20974  -3.20971
  Beta  occ. eigenvalues --   -3.20961  -3.20961  -3.20830  -3.20798  -3.20776
  Beta  occ. eigenvalues --   -2.74850  -1.85297  -1.85267  -1.85243  -1.85214
  Beta  occ. eigenvalues --   -1.85092  -1.85049  -1.85026  -1.85005  -1.84992
  Beta  occ. eigenvalues --   -1.84986  -1.84965  -1.84894  -1.84352  -1.84240
  Beta  occ. eigenvalues --   -1.84226  -1.84219  -1.84181  -1.84175  -1.84104
  Beta  occ. eigenvalues --   -1.84090  -1.84068  -1.84057  -1.84036  -1.84023
  Beta  occ. eigenvalues --   -1.83901  -1.83875  -1.83859  -1.83854  -1.83817
  Beta  occ. eigenvalues --   -1.83784  -1.83764  -1.83760  -1.83744  -1.83644
  Beta  occ. eigenvalues --   -1.83638  -1.83626  -1.80726  -1.76006  -1.75925
  Beta  occ. eigenvalues --   -1.50305  -1.50273  -1.50254  -1.08591  -1.06960
  Beta  occ. eigenvalues --   -1.06915  -1.06888  -1.05991  -1.05973  -1.05940
  Beta  occ. eigenvalues --   -1.04555  -1.04545  -1.04539  -1.03955  -1.03943
  Beta  occ. eigenvalues --   -1.03668  -1.03319  -1.03278  -1.03258  -1.03024
  Beta  occ. eigenvalues --   -1.02989  -1.02232  -1.02216  -1.02192  -1.02043
  Beta  occ. eigenvalues --   -1.01996  -1.01958  -1.01898  -1.01863  -1.01768
  Beta  occ. eigenvalues --   -1.01729  -1.01717  -1.01608  -1.01554  -1.01520
  Beta  occ. eigenvalues --   -1.01284  -1.00777  -1.00745  -1.00699  -1.00688
  Beta  occ. eigenvalues --   -0.99907  -0.99835  -0.99791  -0.96265  -0.89775
  Beta  occ. eigenvalues --   -0.85741  -0.85709  -0.85695  -0.85592  -0.85583
  Beta  occ. eigenvalues --   -0.85560  -0.85556  -0.85547  -0.85525  -0.84672
  Beta  occ. eigenvalues --   -0.84251  -0.82637  -0.72058  -0.69629  -0.65175
  Beta  occ. eigenvalues --   -0.62285  -0.61665  -0.61631  -0.61593  -0.60691
  Beta  occ. eigenvalues --   -0.58936  -0.58931  -0.58911  -0.58784  -0.58753
  Beta  occ. eigenvalues --   -0.58723  -0.58711  -0.58649  -0.58528  -0.57355
  Beta  occ. eigenvalues --   -0.57193  -0.57153  -0.56985  -0.56826  -0.56477
  Beta  occ. eigenvalues --   -0.56400  -0.56358  -0.55827  -0.55611  -0.55339
  Beta  occ. eigenvalues --   -0.55333  -0.55319  -0.54479  -0.54167  -0.54135
  Beta  occ. eigenvalues --   -0.53946  -0.53652  -0.53621  -0.53576  -0.52725
  Beta  occ. eigenvalues --   -0.52619  -0.52558  -0.52459  -0.52424  -0.51464
  Beta  occ. eigenvalues --   -0.51432  -0.51424  -0.51302  -0.51243  -0.50819
  Beta  occ. eigenvalues --   -0.50476  -0.50457  -0.50398  -0.50308  -0.50212
  Beta  occ. eigenvalues --   -0.50153  -0.50027  -0.49997  -0.49968  -0.49675
  Beta  occ. eigenvalues --   -0.49614  -0.49587  -0.49474  -0.49439  -0.49295
  Beta  occ. eigenvalues --   -0.49238  -0.49191  -0.49072  -0.49049  -0.48957
  Beta  occ. eigenvalues --   -0.48662  -0.48527  -0.48481  -0.48423  -0.47770
  Beta  occ. eigenvalues --   -0.47622  -0.47536  -0.45902  -0.45891  -0.45796
  Beta  occ. eigenvalues --   -0.45780  -0.45668  -0.45556  -0.45188  -0.45167
  Beta  occ. eigenvalues --   -0.45142  -0.45049  -0.44814  -0.44605  -0.44463
  Beta  occ. eigenvalues --   -0.44424  -0.44402  -0.44265  -0.44192  -0.44170
  Beta  occ. eigenvalues --   -0.43447  -0.43072  -0.42503  -0.42477  -0.42404
  Beta  occ. eigenvalues --   -0.42256  -0.42137  -0.42125  -0.42109  -0.41614
  Beta  occ. eigenvalues --   -0.41600  -0.41548  -0.41279  -0.41025  -0.40926
  Beta  occ. eigenvalues --   -0.40744  -0.40713  -0.40644  -0.40372  -0.40367
  Beta  occ. eigenvalues --   -0.40302  -0.40158  -0.40132  -0.40114  -0.39796
  Beta  occ. eigenvalues --   -0.39635  -0.39352  -0.39170  -0.39120  -0.39096
  Beta  occ. eigenvalues --   -0.38907  -0.38875  -0.38844  -0.38780  -0.38724
  Beta  occ. eigenvalues --   -0.38685  -0.38303  -0.38269  -0.38239  -0.37793
  Beta  occ. eigenvalues --   -0.37192  -0.37176  -0.35808  -0.35793  -0.33791
  Beta  occ. eigenvalues --   -0.30761
  Beta virt. eigenvalues --   -0.06243  -0.06204  -0.04795  -0.04712  -0.04611
  Beta virt. eigenvalues --   -0.01497  -0.01393  -0.01324  -0.01073  -0.00901
  Beta virt. eigenvalues --   -0.00869  -0.00820  -0.00115  -0.00043  -0.00006

 Mulliken charges and spin densities:
               1          2
     1  Cl  -0.343270  -0.629444
     2  C   -0.037525  -0.080779
     3  C    0.014776   0.044619
     4  C   -0.036045  -0.077102
     5  C   -0.030833   0.049677
     6  C    0.006382  -0.098620
     7  C   -0.048521   0.049352
     8  H    0.047051   0.003463
     9  H    0.049474   0.003321
    10  H    0.054042  -0.001749
    11  H    0.054977   0.004335
    12  H    0.052884  -0.001716
    13  C   -0.000100  -0.202781
    14  C   -0.031867  -0.075434
    15  H    0.072286   0.008687
    16  H    0.094253   0.004226
    17  H    0.091093   0.003315
    18  O   -0.672004  -0.000571
    19  O   -0.668699  -0.000502
    20  O   -0.665778  -0.001830
    21  O   -0.670543  -0.000525
    22  W    1.718080   0.000358
    23  W    1.656076   0.000507
    24  W    1.668043   0.000192
    25  W    1.676846   0.000196
    26  W    1.661889   0.002726
    27  W    1.709463   0.002489
    28  W    1.612915   0.003260
    29  W    1.669108   0.002874
    30  O   -0.351028  -0.000538
    31  O   -0.394076  -0.000560
    32  O   -0.393940  -0.000607
    33  O   -0.391459  -0.000555
    34  O   -0.672816  -0.000313
    35  O   -0.677483  -0.000079
    36  O   -0.670016  -0.000147
    37  O   -0.671755  -0.000239
    38  O   -0.395889   0.002022
    39  O   -0.395718   0.002039
    40  O   -0.339228  -0.000898
    41  O   -0.395101   0.002022
    42  O   -0.677335   0.000095
    43  O   -0.671220   0.000185
    44  O   -0.667541   0.000313
    45  O   -0.673834   0.000114
    46  O   -0.396224   0.002343
    47  O   -0.352794   0.002240
    48  O   -0.387695   0.001821
    49  O   -0.393812   0.002401
    50  W    1.657803   0.002715
    51  W    1.660781   0.002604
    52  W    1.674193   0.003718
    53  W    1.668638   0.002531
    54  O   -0.721279   0.000091
    55  O   -0.705378   0.000002
    56  O   -0.722699   0.000159
    57  O   -0.719716   0.000051
    58  O   -0.704509  -0.000010
    59  O   -0.723229   0.000145
    60  O   -0.722102   0.000198
    61  O   -0.718255   0.000193
    62  O   -0.722707  -0.000168
    63  O   -0.707059  -0.000011
    64  O   -0.722139  -0.000187
    65  O   -0.724218  -0.000201
    66  O   -0.884689   0.005056
    67  O   -0.884475   0.007147
    68  O   -0.882815   0.007053
    69  O   -0.889328   0.006524
    70  K    0.853282   0.000187
    71  K    0.853561   0.000207
    72  K    0.849630   0.000229
    73  V    1.201217   0.937564
 Sum of Mulliken charges =  -1.00000   0.00000

 Dipole moment (field-independent basis, Debye):
    X=             29.2637    Y=            -13.7989    Z=            -30.6365  Tot=             44.5575
 Quadrupole moment (field-independent basis, Debye-Ang):
   XX=           -778.2093   YY=           -701.2986   ZZ=           -780.5028
   XY=            132.0990   XZ=            186.0889   YZ=            -94.0594

 Normal termination of Gaussian 16 at Sun Jun  2 03:29:19 2024.
