 Gaussian 16, Revision C.01,
 Gaussian 16:  ES64L-G16RevC.01  3-Jul-2019

 ----------------------------------------------------------------------
 # def2svp wb97xd scrf=(smd,solvent=acetonitrile) g09default scf=(xqc,m
 axcycle=64) force guess=read nosymm
 ----------------------------------------------------------------------

 ----------
 Title Card
 ----------
 Symbolic Z-matrix:
 Charge = -1 Multiplicity = 1

                          Input orientation:
 ---------------------------------------------------------------------
 Center     Atomic      Atomic             Coordinates (Angstroms)
 Number     Number       Type             X           Y           Z
 ---------------------------------------------------------------------
      1         17           0       -9.944827    8.052087   10.509830
      2          6           0       -8.315729    4.236659   12.229912
      3          6           0       -9.085651    3.915970   11.097333
      4          6           0      -10.015090    2.865210   11.201323
      5          6           0      -10.192348    2.180406   12.399261
      6          6           0       -9.434444    2.524365   13.519299
      7          6           0       -8.489083    3.548056   13.426280
      8          1           0       -7.570837    5.033294   12.175581
      9          1           0      -10.601953    2.586648   10.321365
     10          1           0      -10.922517    1.369911   12.460597
     11          1           0       -9.571159    1.988205   14.460696
     12          1           0       -7.884793    3.814161   14.297222
     13          6           0       -8.962135    4.632351    9.826697
     14          6           0       -8.166025    5.688688    9.575791
     15          1           0       -9.600171    4.257718    9.018876
     16          1           0       -8.124882    6.125301    8.576409
     17          1           0       -7.472337    6.097357   10.314215
     18          8           0       -1.001091   -1.766786    7.458149
     19          8           0       -8.412650   -1.330439    7.461008
     20          8           0       -7.047528    1.347085   10.484782
     21          8           0       -2.331518   -4.361580   10.559154
     22         74           0       -3.417678    0.723965    6.486042
     23         74           0       -6.008140   -3.825772    6.577387
     24         74           0       -3.629756    0.908697   11.414511
     25         74           0       -5.774711   -3.863361   11.472034
     26         74           0       -2.462226   -2.557808    6.388733
     27         74           0       -6.943935   -0.538057    6.358034
     28         74           0       -6.825054   -0.248486   11.579798
     29         74           0       -2.568299   -2.701153   11.620402
     30          8           0       -3.181682    1.919565    5.318174
     31          8           0       -6.149144   -5.073514    5.433007
     32          8           0       -2.719073    1.762350   12.567839
     33          8           0       -6.676865   -4.681611   12.656236
     34          8           0       -2.683999   -0.878631    5.583158
     35          8           0       -6.717735   -2.271353    5.625750
     36          8           0       -5.322094    0.565685   12.365929
     37          8           0       -4.061534   -3.517005   12.409015
     38          8           0        0.295057    0.002209    9.269428
     39          8           0       -9.715412   -3.024739    9.321158
     40          8           0       -6.378491    3.418662    8.657467
     41          8           0       -2.976811   -6.460029    8.760241
     42          8           0       -1.800783    0.775316    7.476422
     43          8           0       -7.613017   -3.879376    7.553279
     44          8           0       -4.525251    2.219632   10.432227
     45          8           0       -4.865703   -5.215938   10.524732
     46          8           0       -1.624604   -3.486709    5.237841
     47          8           0       -7.836931    0.259136    5.167880
     48          8           0       -8.041123   -0.156274   12.760155
     49          8           0       -1.333103   -2.832792   12.779712
     50         74           0       -1.264927   -0.516730    8.838988
     51         74           0       -8.155650   -2.517532    8.875873
     52         74           0       -5.908986    1.849367    9.048375
     53         74           0       -3.475375   -4.887721    9.170146
     54          8           0       -4.233515   -3.094158    6.068080
     55          8           0       -5.170696   -0.039264    6.006862
     56          8           0       -6.180191   -1.997134   11.919186
     57          8           0       -3.182191   -0.956541   11.936162
     58          8           0       -4.376908    1.581945    7.847751
     59          8           0       -5.007309   -4.674773    7.924579
     60          8           0       -2.340131    0.596813   10.081678
     61          8           0       -7.064759   -3.611272   10.137829
     62          8           0       -2.578256   -3.875900    7.863283
     63          8           0       -6.832555    0.783021    7.807737
     64          8           0       -7.839597   -1.172926   10.150206
     65          8           0       -1.576148   -1.842741   10.144109
     66          8           0       -3.377352   -1.136043    8.007651
     67          8           0       -6.033470   -1.951003    8.036429
     68          8           0       -5.129324   -0.196769    9.951811
     69          8           0       -4.247754   -2.826696    9.979230
     70         19           0       -3.225635   -6.134414    5.653482
     71         19           0       -0.128706    0.050337   12.358164
     72         19           0       -9.284365   -2.911913   12.427431
     73         23           0       -4.700111   -1.523637    8.990460
 ---------------------------------------------------------------------

 SCF Done:  E(RwB97XD) =  -7327.70055105     A.U. after   11 cycles

 Alpha  occ. eigenvalues -- -197.29544-130.00181-130.00176-130.00094-101.47657
 Alpha  occ. eigenvalues --  -22.62660 -19.33701 -19.33682 -19.33674 -19.33654
 Alpha  occ. eigenvalues --  -19.30699 -19.30668 -19.30662 -19.30655 -19.30652
 Alpha  occ. eigenvalues --  -19.30643 -19.30623 -19.30593 -19.30504 -19.30323
 Alpha  occ. eigenvalues --  -19.30292 -19.30060 -19.29316 -19.29315 -19.29286
 Alpha  occ. eigenvalues --  -19.29273 -19.29272 -19.29263 -19.29250 -19.29187
 Alpha  occ. eigenvalues --  -19.29186 -19.29166 -19.29136 -19.29129 -19.29111
 Alpha  occ. eigenvalues --  -19.29105 -19.29102 -19.29096 -19.29076 -19.29058
 Alpha  occ. eigenvalues --  -19.29046 -19.28962 -19.28954 -19.28938 -19.28918
 Alpha  occ. eigenvalues --  -19.28772 -19.11618 -19.11610 -19.11600 -13.37585
 Alpha  occ. eigenvalues --  -13.37581 -13.37488 -10.70514 -10.70510 -10.70507
 Alpha  occ. eigenvalues --  -10.70507 -10.70503 -10.70502 -10.70418 -10.70411
 Alpha  occ. eigenvalues --  -10.70408 -10.29832 -10.29343 -10.29289 -10.29094
 Alpha  occ. eigenvalues --  -10.29010 -10.28992 -10.28179 -10.27698  -9.38112
 Alpha  occ. eigenvalues --   -7.12934  -7.12894  -7.12893  -3.23277  -3.23270
 Alpha  occ. eigenvalues --   -3.23257  -3.23254  -3.23250  -3.23244  -3.23188
 Alpha  occ. eigenvalues --   -3.23187  -3.23140  -3.22914  -3.22911  -3.22663
 Alpha  occ. eigenvalues --   -2.91883  -1.94255  -1.94227  -1.94217  -1.87694
 Alpha  occ. eigenvalues --   -1.87637  -1.87613  -1.87556  -1.87460  -1.87449
 Alpha  occ. eigenvalues --   -1.87438  -1.87407  -1.87360  -1.87232  -1.87199
 Alpha  occ. eigenvalues --   -1.87003  -1.86592  -1.86472  -1.86465  -1.86440
 Alpha  occ. eigenvalues --   -1.86420  -1.86378  -1.86304  -1.86291  -1.86269
 Alpha  occ. eigenvalues --   -1.86252  -1.86227  -1.86196  -1.86110  -1.86087
 Alpha  occ. eigenvalues --   -1.86085  -1.86055  -1.86012  -1.85959  -1.85938
 Alpha  occ. eigenvalues --   -1.85879  -1.85846  -1.85752  -1.85624  -1.85564
 Alpha  occ. eigenvalues --   -1.51267  -1.51262  -1.51171  -1.13077  -1.11319
 Alpha  occ. eigenvalues --   -1.11227  -1.11211  -1.08955  -1.08505  -1.08455
 Alpha  occ. eigenvalues --   -1.08264  -1.07554  -1.07497  -1.07475  -1.06876
 Alpha  occ. eigenvalues --   -1.06847  -1.06825  -1.06289  -1.06254  -1.05294
 Alpha  occ. eigenvalues --   -1.05288  -1.04955  -1.04944  -1.04922  -1.04171
 Alpha  occ. eigenvalues --   -1.04168  -1.04141  -1.03998  -1.03977  -1.03963
 Alpha  occ. eigenvalues --   -1.03920  -1.03866  -1.03845  -1.03730  -1.03686
 Alpha  occ. eigenvalues --   -1.03591  -1.03539  -1.03266  -1.03226  -1.03091
 Alpha  occ. eigenvalues --   -1.03074  -1.03014  -1.02904  -0.94413  -0.86728
 Alpha  occ. eigenvalues --   -0.86722  -0.86637  -0.86576  -0.86540  -0.86537
 Alpha  occ. eigenvalues --   -0.86535  -0.86527  -0.86450  -0.86430  -0.82838
 Alpha  occ. eigenvalues --   -0.79826  -0.70807  -0.69804  -0.68063  -0.64555
 Alpha  occ. eigenvalues --   -0.63916  -0.63872  -0.63858  -0.63335  -0.63302
 Alpha  occ. eigenvalues --   -0.63200  -0.63060  -0.62687  -0.62613  -0.62000
 Alpha  occ. eigenvalues --   -0.61599  -0.61580  -0.61490  -0.61193  -0.61172
 Alpha  occ. eigenvalues --   -0.61139  -0.60388  -0.59443  -0.59422  -0.59408
 Alpha  occ. eigenvalues --   -0.59380  -0.59349  -0.58706  -0.57969  -0.57940
 Alpha  occ. eigenvalues --   -0.57874  -0.57081  -0.57045  -0.57011  -0.56271
 Alpha  occ. eigenvalues --   -0.56225  -0.56069  -0.55676  -0.54830  -0.54771
 Alpha  occ. eigenvalues --   -0.54732  -0.54595  -0.54217  -0.54105  -0.54059
 Alpha  occ. eigenvalues --   -0.54020  -0.53941  -0.53215  -0.53169  -0.53050
 Alpha  occ. eigenvalues --   -0.52979  -0.52871  -0.52692  -0.52630  -0.52596
 Alpha  occ. eigenvalues --   -0.52550  -0.52520  -0.52449  -0.52425  -0.51569
 Alpha  occ. eigenvalues --   -0.51546  -0.51368  -0.51324  -0.51300  -0.51241
 Alpha  occ. eigenvalues --   -0.51163  -0.51136  -0.51025  -0.50722  -0.50543
 Alpha  occ. eigenvalues --   -0.50542  -0.50501  -0.49883  -0.49873  -0.49297
 Alpha  occ. eigenvalues --   -0.49255  -0.49233  -0.49175  -0.49134  -0.49037
 Alpha  occ. eigenvalues --   -0.48886  -0.48069  -0.48016  -0.47906  -0.47712
 Alpha  occ. eigenvalues --   -0.47337  -0.47283  -0.47226  -0.46999  -0.46951
 Alpha  occ. eigenvalues --   -0.46822  -0.46544  -0.46499  -0.46428  -0.46214
 Alpha  occ. eigenvalues --   -0.46150  -0.46094  -0.45622  -0.45073  -0.44891
 Alpha  occ. eigenvalues --   -0.44863  -0.44167  -0.44147  -0.44017  -0.43595
 Alpha  occ. eigenvalues --   -0.43285  -0.43227  -0.43102  -0.43081  -0.43039
 Alpha  occ. eigenvalues --   -0.42705  -0.42675  -0.42648  -0.42588  -0.42579
 Alpha  occ. eigenvalues --   -0.42495  -0.42448  -0.42435  -0.42272  -0.42256
 Alpha  occ. eigenvalues --   -0.42226  -0.42005  -0.41889  -0.41835  -0.41817
 Alpha  occ. eigenvalues --   -0.41228  -0.41181  -0.41142  -0.41034  -0.40536
 Alpha  occ. eigenvalues --   -0.40522  -0.40505  -0.40412  -0.39428  -0.39403
 Alpha  occ. eigenvalues --   -0.36905  -0.32554  -0.28831  -0.24549  -0.24523
 Alpha  occ. eigenvalues --   -0.23323
 Alpha virt. eigenvalues --   -0.09534  -0.09334  -0.08372  -0.08323  -0.06945
 Alpha virt. eigenvalues --   -0.06881  -0.06787  -0.04515  -0.04209  -0.04182
 Alpha virt. eigenvalues --   -0.03685  -0.03524  -0.03437  -0.03197  -0.03090

 Mulliken charges:
               1
     1  Cl  -0.931732
     2  C   -0.077886
     3  C    0.040808
     4  C   -0.075749
     5  C   -0.033112
     6  C   -0.031019
     7  C   -0.049895
     8  H    0.028859
     9  H    0.030289
    10  H    0.040812
    11  H    0.037039
    12  H    0.039811
    13  C   -0.094730
    14  C    0.015312
    15  H    0.020870
    16  H    0.041028
    17  H    0.036139
    18  O   -0.663310
    19  O   -0.660028
    20  O   -0.654526
    21  O   -0.661509
    22  W    1.734941
    23  W    1.670717
    24  W    1.680660
    25  W    1.691110
    26  W    1.675748
    27  W    1.727248
    28  W    1.621127
    29  W    1.683451
    30  O   -0.320973
    31  O   -0.365638
    32  O   -0.365817
    33  O   -0.362699
    34  O   -0.664657
    35  O   -0.670252
    36  O   -0.661237
    37  O   -0.663001
    38  O   -0.366141
    39  O   -0.365445
    40  O   -0.293707
    41  O   -0.365144
    42  O   -0.669776
    43  O   -0.662791
    44  O   -0.659057
    45  O   -0.665516
    46  O   -0.366458
    47  O   -0.320929
    48  O   -0.355259
    49  O   -0.363600
    50  W    1.672105
    51  W    1.675196
    52  W    1.680029
    53  W    1.683275
    54  O   -0.723405
    55  O   -0.707082
    56  O   -0.726075
    57  O   -0.721542
    58  O   -0.707509
    59  O   -0.726165
    60  O   -0.724709
    61  O   -0.720660
    62  O   -0.724431
    63  O   -0.708923
    64  O   -0.723211
    65  O   -0.726404
    66  O   -0.802431
    67  O   -0.801382
    68  O   -0.799864
    69  O   -0.809665
    70  K    0.866788
    71  K    0.866995
    72  K    0.863418
    73  V    1.191275
 Sum of Mulliken charges =  -1.00000

 Dipole moment (field-independent basis, Debye):
    X=             51.8773    Y=            -51.3276    Z=            -38.4952  Tot=             82.5085
 Quadrupole moment (field-independent basis, Debye-Ang):
   XX=          -1071.3567   YY=           -878.9029   ZZ=           -909.7140
   XY=            459.1447   XZ=            464.7632   YZ=           -478.0897

 Normal termination of Gaussian 16 at Sun Jun  2 04:16:38 2024.
