 Gaussian 16, Revision C.01,
 Gaussian 16:  ES64L-G16RevC.01  3-Jul-2019

 ----------------------------------------------------------------------
 # def2svp wb97xd scrf=(smd,solvent=acetonitrile) g09default scf=(xqc,m
 axcycle=64) force guess=read nosymm
 ----------------------------------------------------------------------

 ----------
 Title Card
 ----------
 Symbolic Z-matrix:
 Charge = -1 Multiplicity = 1

                          Input orientation:
 ---------------------------------------------------------------------
 Center     Atomic      Atomic             Coordinates (Angstroms)
 Number     Number       Type             X           Y           Z
 ---------------------------------------------------------------------
      1         17           0       -9.944827    8.052087   10.509830
      2          6           0       -8.315729    4.236659   12.229912
      3          6           0       -9.085651    3.915970   11.097333
      4          6           0      -10.015090    2.865210   11.201323
      5          6           0      -10.192348    2.180406   12.399261
      6          6           0       -9.434444    2.524365   13.519299
      7          6           0       -8.489083    3.548056   13.426280
      8          1           0       -7.570837    5.033294   12.175581
      9          1           0      -10.601953    2.586648   10.321365
     10          1           0      -10.922517    1.369911   12.460597
     11          1           0       -9.571159    1.988205   14.460696
     12          1           0       -7.884793    3.814161   14.297222
     13          6           0       -8.962135    4.632351    9.826697
     14          6           0       -8.166025    5.688688    9.575791
     15          1           0       -9.600171    4.257718    9.018876
     16          1           0       -8.124882    6.125301    8.576409
     17          1           0       -7.472337    6.097357   10.314215
     18          8           0       -1.001091   -1.766786    7.458149
     19          8           0       -8.412650   -1.330439    7.461008
     20          8           0       -7.047528    1.347085   10.484782
     21          8           0       -2.331518   -4.361580   10.559154
     22         74           0       -3.417678    0.723965    6.486042
     23         74           0       -6.008140   -3.825772    6.577387
     24         74           0       -3.629756    0.908697   11.414511
     25         74           0       -5.774711   -3.863361   11.472034
     26         74           0       -2.462226   -2.557808    6.388733
     27         74           0       -6.943935   -0.538057    6.358034
     28         74           0       -6.825054   -0.248486   11.579798
     29         74           0       -2.568299   -2.701153   11.620402
     30          8           0       -3.181682    1.919565    5.318174
     31          8           0       -6.149144   -5.073514    5.433007
     32          8           0       -2.719073    1.762350   12.567839
     33          8           0       -6.676865   -4.681611   12.656236
     34          8           0       -2.683999   -0.878631    5.583158
     35          8           0       -6.717735   -2.271353    5.625750
     36          8           0       -5.322094    0.565685   12.365929
     37          8           0       -4.061534   -3.517005   12.409015
     38          8           0        0.295057    0.002209    9.269428
     39          8           0       -9.715412   -3.024739    9.321158
     40          8           0       -6.378491    3.418662    8.657467
     41          8           0       -2.976811   -6.460029    8.760241
     42          8           0       -1.800783    0.775316    7.476422
     43          8           0       -7.613017   -3.879376    7.553279
     44          8           0       -4.525251    2.219632   10.432227
     45          8           0       -4.865703   -5.215938   10.524732
     46          8           0       -1.624604   -3.486709    5.237841
     47          8           0       -7.836931    0.259136    5.167880
     48          8           0       -8.041123   -0.156274   12.760155
     49          8           0       -1.333103   -2.832792   12.779712
     50         74           0       -1.264927   -0.516730    8.838988
     51         74           0       -8.155650   -2.517532    8.875873
     52         74           0       -5.908986    1.849367    9.048375
     53         74           0       -3.475375   -4.887721    9.170146
     54          8           0       -4.233515   -3.094158    6.068080
     55          8           0       -5.170696   -0.039264    6.006862
     56          8           0       -6.180191   -1.997134   11.919186
     57          8           0       -3.182191   -0.956541   11.936162
     58          8           0       -4.376908    1.581945    7.847751
     59          8           0       -5.007309   -4.674773    7.924579
     60          8           0       -2.340131    0.596813   10.081678
     61          8           0       -7.064759   -3.611272   10.137829
     62          8           0       -2.578256   -3.875900    7.863283
     63          8           0       -6.832555    0.783021    7.807737
     64          8           0       -7.839597   -1.172926   10.150206
     65          8           0       -1.576148   -1.842741   10.144109
     66          8           0       -3.377352   -1.136043    8.007651
     67          8           0       -6.033470   -1.951003    8.036429
     68          8           0       -5.129324   -0.196769    9.951811
     69          8           0       -4.247754   -2.826696    9.979230
     70         19           0       -3.225635   -6.134414    5.653482
     71         19           0       -0.128706    0.050337   12.358164
     72         19           0       -9.284365   -2.911913   12.427431
     73         23           0       -4.700111   -1.523637    8.990460
 ---------------------------------------------------------------------

 SCF Done:  E(UwB97XD) =  -7327.70081633     A.U. after   36 cycles

 Alpha  occ. eigenvalues --  -19.24754 -18.94280 -18.93185 -18.93161 -13.36618
 Alpha  occ. eigenvalues --  -13.36579 -13.36564 -10.69545 -10.69541 -10.69540
 Alpha  occ. eigenvalues --  -10.69506 -10.69502 -10.69501 -10.69492 -10.69488
 Alpha  occ. eigenvalues --  -10.69485 -10.32772 -10.32093 -10.31758 -10.30851
 Alpha  occ. eigenvalues --  -10.30842 -10.30826 -10.30460 -10.30384  -9.52796
 Alpha  occ. eigenvalues --   -7.27684  -7.27331  -7.27326  -3.21058  -3.21029
 Alpha  occ. eigenvalues --   -3.21027  -3.21025  -3.21000  -3.20980  -3.20977
 Alpha  occ. eigenvalues --   -3.20968  -3.20968  -3.20833  -3.20804  -3.20782
 Alpha  occ. eigenvalues --   -2.78953  -1.85303  -1.85273  -1.85249  -1.85225
 Alpha  occ. eigenvalues --   -1.85097  -1.85054  -1.85036  -1.85014  -1.84999
 Alpha  occ. eigenvalues --   -1.84994  -1.84970  -1.84907  -1.84356  -1.84243
 Alpha  occ. eigenvalues --   -1.84230  -1.84224  -1.84184  -1.84179  -1.84108
 Alpha  occ. eigenvalues --   -1.84094  -1.84072  -1.84061  -1.84041  -1.84027
 Alpha  occ. eigenvalues --   -1.83905  -1.83878  -1.83863  -1.83857  -1.83819
 Alpha  occ. eigenvalues --   -1.83787  -1.83768  -1.83763  -1.83747  -1.83648
 Alpha  occ. eigenvalues --   -1.83640  -1.83629  -1.82100  -1.81766  -1.81744
 Alpha  occ. eigenvalues --   -1.50313  -1.50275  -1.50261  -1.08614  -1.06984
 Alpha  occ. eigenvalues --   -1.06940  -1.06918  -1.05997  -1.05978  -1.05941
 Alpha  occ. eigenvalues --   -1.04557  -1.04545  -1.04541  -1.03959  -1.03945
 Alpha  occ. eigenvalues --   -1.03749  -1.03358  -1.03322  -1.03298  -1.03023
 Alpha  occ. eigenvalues --   -1.02994  -1.02256  -1.02245  -1.02212  -1.02050
 Alpha  occ. eigenvalues --   -1.01999  -1.01968  -1.01899  -1.01873  -1.01771
 Alpha  occ. eigenvalues --   -1.01731  -1.01720  -1.01606  -1.01562  -1.01540
 Alpha  occ. eigenvalues --   -1.01283  -1.00819  -1.00742  -1.00698  -1.00687
 Alpha  occ. eigenvalues --   -1.00052  -0.99979  -0.99922  -0.96066  -0.89145
 Alpha  occ. eigenvalues --   -0.85748  -0.85712  -0.85702  -0.85600  -0.85591
 Alpha  occ. eigenvalues --   -0.85562  -0.85559  -0.85555  -0.85532  -0.84163
 Alpha  occ. eigenvalues --   -0.82257  -0.81126  -0.71807  -0.69525  -0.64947
 Alpha  occ. eigenvalues --   -0.62287  -0.61666  -0.61635  -0.61598  -0.60508
 Alpha  occ. eigenvalues --   -0.58948  -0.58931  -0.58912  -0.58865  -0.58801
 Alpha  occ. eigenvalues --   -0.58752  -0.58735  -0.58688  -0.58532  -0.57392
 Alpha  occ. eigenvalues --   -0.57359  -0.57329  -0.57044  -0.56648  -0.56482
 Alpha  occ. eigenvalues --   -0.56437  -0.56399  -0.56029  -0.55879  -0.55361
 Alpha  occ. eigenvalues --   -0.55352  -0.55322  -0.54320  -0.54172  -0.54148
 Alpha  occ. eigenvalues --   -0.53958  -0.53695  -0.53648  -0.53625  -0.52682
 Alpha  occ. eigenvalues --   -0.52588  -0.52569  -0.52476  -0.52431  -0.51471
 Alpha  occ. eigenvalues --   -0.51460  -0.51449  -0.51372  -0.51308  -0.50666
 Alpha  occ. eigenvalues --   -0.50529  -0.50520  -0.50459  -0.50362  -0.50253
 Alpha  occ. eigenvalues --   -0.50213  -0.50057  -0.49999  -0.49990  -0.49723
 Alpha  occ. eigenvalues --   -0.49635  -0.49602  -0.49485  -0.49452  -0.49296
 Alpha  occ. eigenvalues --   -0.49264  -0.49196  -0.49107  -0.49069  -0.48986
 Alpha  occ. eigenvalues --   -0.48664  -0.48514  -0.48476  -0.48433  -0.47678
 Alpha  occ. eigenvalues --   -0.47647  -0.47120  -0.46476  -0.46041  -0.46012
 Alpha  occ. eigenvalues --   -0.45867  -0.45756  -0.45671  -0.45584  -0.45187
 Alpha  occ. eigenvalues --   -0.45148  -0.45135  -0.44810  -0.44604  -0.44483
 Alpha  occ. eigenvalues --   -0.44467  -0.44444  -0.44276  -0.44209  -0.44194
 Alpha  occ. eigenvalues --   -0.43462  -0.42984  -0.42560  -0.42511  -0.42454
 Alpha  occ. eigenvalues --   -0.42320  -0.42180  -0.42169  -0.42044  -0.41637
 Alpha  occ. eigenvalues --   -0.41617  -0.41569  -0.41019  -0.40976  -0.40787
 Alpha  occ. eigenvalues --   -0.40744  -0.40740  -0.40389  -0.40378  -0.40324
 Alpha  occ. eigenvalues --   -0.40203  -0.40173  -0.40145  -0.40119  -0.39852
 Alpha  occ. eigenvalues --   -0.39353  -0.39284  -0.39268  -0.39148  -0.39072
 Alpha  occ. eigenvalues --   -0.38930  -0.38899  -0.38838  -0.38788  -0.38719
 Alpha  occ. eigenvalues --   -0.38303  -0.38272  -0.38240  -0.37820  -0.37190
 Alpha  occ. eigenvalues --   -0.37181  -0.34875  -0.34860  -0.33556  -0.29838
 Alpha  occ. eigenvalues --   -0.25927
 Alpha virt. eigenvalues --   -0.12315  -0.06253  -0.06214  -0.04804  -0.04723
 Alpha virt. eigenvalues --   -0.04618  -0.01504  -0.01398  -0.01329  -0.01084
 Alpha virt. eigenvalues --   -0.00907  -0.00880  -0.00829  -0.00121  -0.00057

  Beta  occ. eigenvalues -- -197.11030-129.99207-129.99169-129.99164-101.62802
  Beta  occ. eigenvalues --  -22.43439 -19.28500 -19.28486 -19.28453 -19.28373
  Beta  occ. eigenvalues --  -19.28368 -19.28347 -19.28341 -19.28337 -19.28319
  Beta  occ. eigenvalues --  -19.28240 -19.28197 -19.28115 -19.26934 -19.26903
  Beta  occ. eigenvalues --  -19.26888 -19.26883 -19.26870 -19.26864 -19.26840
  Beta  occ. eigenvalues --  -19.26838 -19.26821 -19.26795 -19.26786 -19.26780
  Beta  occ. eigenvalues --  -19.26779 -19.26779 -19.26774 -19.26770 -19.26753
  Beta  occ. eigenvalues --  -19.26738 -19.26730 -19.26728 -19.26726 -19.26719
  Beta  occ. eigenvalues --  -19.26649 -19.26601 -19.24833 -19.24774 -19.24758
  Beta  occ. eigenvalues --  -19.24728 -18.93935 -18.91733 -18.91685 -13.36618
  Beta  occ. eigenvalues --  -13.36579 -13.36564 -10.69545 -10.69541 -10.69540
  Beta  occ. eigenvalues --  -10.69506 -10.69502 -10.69501 -10.69492 -10.69488
  Beta  occ. eigenvalues --  -10.69485 -10.33000 -10.32251 -10.31718 -10.30949
  Beta  occ. eigenvalues --  -10.30937 -10.30910 -10.30411 -10.30334  -9.53258
  Beta  occ. eigenvalues --   -7.29141  -7.27647  -7.27642  -3.21058  -3.21027
  Beta  occ. eigenvalues --   -3.21025  -3.21022  -3.20994  -3.20974  -3.20971
  Beta  occ. eigenvalues --   -3.20962  -3.20962  -3.20833  -3.20800  -3.20777
  Beta  occ. eigenvalues --   -2.74887  -1.85298  -1.85267  -1.85245  -1.85217
  Beta  occ. eigenvalues --   -1.85092  -1.85049  -1.85030  -1.85006  -1.84992
  Beta  occ. eigenvalues --   -1.84985  -1.84965  -1.84898  -1.84353  -1.84241
  Beta  occ. eigenvalues --   -1.84227  -1.84220  -1.84181  -1.84175  -1.84105
  Beta  occ. eigenvalues --   -1.84092  -1.84069  -1.84058  -1.84038  -1.84024
  Beta  occ. eigenvalues --   -1.83903  -1.83875  -1.83860  -1.83854  -1.83816
  Beta  occ. eigenvalues --   -1.83784  -1.83765  -1.83760  -1.83744  -1.83646
  Beta  occ. eigenvalues --   -1.83638  -1.83626  -1.80760  -1.76053  -1.75945
  Beta  occ. eigenvalues --   -1.50313  -1.50275  -1.50261  -1.08596  -1.06965
  Beta  occ. eigenvalues --   -1.06916  -1.06891  -1.05995  -1.05975  -1.05940
  Beta  occ. eigenvalues --   -1.04558  -1.04546  -1.04540  -1.03958  -1.03947
  Beta  occ. eigenvalues --   -1.03682  -1.03323  -1.03283  -1.03262  -1.03023
  Beta  occ. eigenvalues --   -1.02987  -1.02236  -1.02220  -1.02195  -1.02042
  Beta  occ. eigenvalues --   -1.01994  -1.01955  -1.01895  -1.01861  -1.01767
  Beta  occ. eigenvalues --   -1.01728  -1.01717  -1.01606  -1.01560  -1.01524
  Beta  occ. eigenvalues --   -1.01283  -1.00782  -1.00742  -1.00697  -1.00686
  Beta  occ. eigenvalues --   -0.99921  -0.99850  -0.99803  -0.96263  -0.89763
  Beta  occ. eigenvalues --   -0.85748  -0.85712  -0.85702  -0.85600  -0.85591
  Beta  occ. eigenvalues --   -0.85562  -0.85559  -0.85555  -0.85532  -0.84719
  Beta  occ. eigenvalues --   -0.84251  -0.82635  -0.72052  -0.69634  -0.65169
  Beta  occ. eigenvalues --   -0.62287  -0.61665  -0.61635  -0.61597  -0.60685
  Beta  occ. eigenvalues --   -0.58937  -0.58930  -0.58910  -0.58786  -0.58756
  Beta  occ. eigenvalues --   -0.58725  -0.58713  -0.58651  -0.58532  -0.57363
  Beta  occ. eigenvalues --   -0.57203  -0.57162  -0.56993  -0.56819  -0.56483
  Beta  occ. eigenvalues --   -0.56405  -0.56363  -0.55835  -0.55619  -0.55343
  Beta  occ. eigenvalues --   -0.55335  -0.55322  -0.54481  -0.54167  -0.54136
  Beta  occ. eigenvalues --   -0.53945  -0.53659  -0.53628  -0.53584  -0.52723
  Beta  occ. eigenvalues --   -0.52619  -0.52558  -0.52457  -0.52423  -0.51462
  Beta  occ. eigenvalues --   -0.51431  -0.51426  -0.51300  -0.51242  -0.50817
  Beta  occ. eigenvalues --   -0.50478  -0.50459  -0.50399  -0.50308  -0.50210
  Beta  occ. eigenvalues --   -0.50150  -0.50027  -0.49994  -0.49966  -0.49670
  Beta  occ. eigenvalues --   -0.49612  -0.49580  -0.49476  -0.49440  -0.49298
  Beta  occ. eigenvalues --   -0.49240  -0.49195  -0.49075  -0.49053  -0.48961
  Beta  occ. eigenvalues --   -0.48658  -0.48523  -0.48471  -0.48424  -0.47768
  Beta  occ. eigenvalues --   -0.47618  -0.47536  -0.45903  -0.45893  -0.45799
  Beta  occ. eigenvalues --   -0.45776  -0.45670  -0.45558  -0.45189  -0.45167
  Beta  occ. eigenvalues --   -0.45141  -0.45052  -0.44810  -0.44604  -0.44466
  Beta  occ. eigenvalues --   -0.44425  -0.44404  -0.44268  -0.44190  -0.44169
  Beta  occ. eigenvalues --   -0.43457  -0.43070  -0.42504  -0.42479  -0.42407
  Beta  occ. eigenvalues --   -0.42258  -0.42143  -0.42129  -0.42110  -0.41616
  Beta  occ. eigenvalues --   -0.41602  -0.41549  -0.41277  -0.41024  -0.40928
  Beta  occ. eigenvalues --   -0.40745  -0.40713  -0.40644  -0.40372  -0.40366
  Beta  occ. eigenvalues --   -0.40301  -0.40157  -0.40131  -0.40113  -0.39795
  Beta  occ. eigenvalues --   -0.39637  -0.39355  -0.39172  -0.39123  -0.39099
  Beta  occ. eigenvalues --   -0.38908  -0.38876  -0.38848  -0.38790  -0.38731
  Beta  occ. eigenvalues --   -0.38690  -0.38302  -0.38268  -0.38237  -0.37834
  Beta  occ. eigenvalues --   -0.37192  -0.37176  -0.35847  -0.35834  -0.33791
  Beta  occ. eigenvalues --   -0.30770
  Beta virt. eigenvalues --   -0.06252  -0.06214  -0.04803  -0.04722  -0.04618
  Beta virt. eigenvalues --   -0.01500  -0.01393  -0.01324  -0.01078  -0.00902
  Beta virt. eigenvalues --   -0.00876  -0.00826  -0.00114  -0.00043  -0.00006

 Mulliken charges and spin densities:
               1          2
     1  Cl  -0.341285  -0.631500
     2  C   -0.037479  -0.080904
     3  C    0.014796   0.044520
     4  C   -0.036023  -0.077218
     5  C   -0.030807   0.049742
     6  C    0.006277  -0.098868
     7  C   -0.048441   0.049461
     8  H    0.047118   0.003477
     9  H    0.049461   0.003327
    10  H    0.054117  -0.001750
    11  H    0.055033   0.004346
    12  H    0.052979  -0.001719
    13  C   -0.000098  -0.203150
    14  C   -0.033584  -0.072415
    15  H    0.072265   0.008695
    16  H    0.094236   0.004085
    17  H    0.090659   0.003138
    18  O   -0.672155  -0.000572
    19  O   -0.668961  -0.000504
    20  O   -0.665723  -0.001814
    21  O   -0.670621  -0.000526
    22  W    1.718422   0.000360
    23  W    1.656521   0.000505
    24  W    1.668469   0.000194
    25  W    1.677362   0.000198
    26  W    1.662202   0.002717
    27  W    1.709771   0.002482
    28  W    1.612918   0.003257
    29  W    1.669432   0.002867
    30  O   -0.350702  -0.000538
    31  O   -0.393981  -0.000560
    32  O   -0.394093  -0.000609
    33  O   -0.391357  -0.000557
    34  O   -0.673086  -0.000314
    35  O   -0.677658  -0.000079
    36  O   -0.670176  -0.000145
    37  O   -0.671956  -0.000239
    38  O   -0.395880   0.002012
    39  O   -0.395393   0.002028
    40  O   -0.339417  -0.000851
    41  O   -0.395141   0.002013
    42  O   -0.677471   0.000095
    43  O   -0.671427   0.000184
    44  O   -0.667769   0.000314
    45  O   -0.673902   0.000117
    46  O   -0.396442   0.002342
    47  O   -0.352560   0.002240
    48  O   -0.388099   0.001829
    49  O   -0.393735   0.002406
    50  W    1.658058   0.002695
    51  W    1.661052   0.002585
    52  W    1.674857   0.003716
    53  W    1.668905   0.002513
    54  O   -0.721450   0.000091
    55  O   -0.705686   0.000003
    56  O   -0.722786   0.000159
    57  O   -0.719905   0.000051
    58  O   -0.704861  -0.000006
    59  O   -0.723442   0.000144
    60  O   -0.722251   0.000197
    61  O   -0.718450   0.000192
    62  O   -0.722862  -0.000168
    63  O   -0.707343  -0.000013
    64  O   -0.722316  -0.000188
    65  O   -0.724335  -0.000201
    66  O   -0.885053   0.005025
    67  O   -0.884673   0.007143
    68  O   -0.883209   0.007039
    69  O   -0.889559   0.006515
    70  K    0.853336   0.000186
    71  K    0.853762   0.000205
    72  K    0.849845   0.000226
    73  V    1.201752   0.937773
 Sum of Mulliken charges =  -1.00000   0.00000

 Dipole moment (field-independent basis, Debye):
    X=             29.2163    Y=            -13.7902    Z=            -30.6249  Tot=             44.5157
 Quadrupole moment (field-independent basis, Debye-Ang):
   XX=           -777.2066   YY=           -701.6054   ZZ=           -780.2044
   XY=            131.8872   XZ=            185.5568   YZ=            -94.0016

 Normal termination of Gaussian 16 at Sun Jun  2 04:06:12 2024.
