 Gaussian 16, Revision C.01,
 Gaussian 16:  ES64L-G16RevC.01  3-Jul-2019

 ----------------------------------------------------------------------
 # def2svp wb97xd scrf=(smd,solvent=acetonitrile) g09default scf=(xqc,m
 axcycle=64) force guess=read nosymm
 ----------------------------------------------------------------------

 ----------
 Title Card
 ----------
 Symbolic Z-matrix:
 Charge = -1 Multiplicity = 1

                          Input orientation:
 ---------------------------------------------------------------------
 Center     Atomic      Atomic             Coordinates (Angstroms)
 Number     Number       Type             X           Y           Z
 ---------------------------------------------------------------------
      1         17           0       -9.931690    8.076334   10.516323
      2          6           0       -8.317152    4.236070   12.229067
      3          6           0       -9.088748    3.915978   11.097552
      4          6           0      -10.017005    2.863933   11.202152
      5          6           0      -10.193868    2.180158   12.400851
      6          6           0       -9.436623    2.526030   13.520805
      7          6           0       -8.489963    3.548570   13.426139
      8          1           0       -7.570816    5.031222   12.172478
      9          1           0      -10.602705    2.583539   10.322099
     10          1           0      -10.921529    1.367379   12.462262
     11          1           0       -9.572835    1.990409   14.462623
     12          1           0       -7.882750    3.813016   14.295536
     13          6           0       -8.968375    4.634162    9.827709
     14          6           0       -8.179396    5.696645    9.577285
     15          1           0       -9.604211    4.257003    9.019365
     16          1           0       -8.138861    6.129892    8.576376
     17          1           0       -7.491517    6.113262   10.316425
     18          8           0       -0.999057   -1.768687    7.458984
     19          8           0       -8.412332   -1.331014    7.461037
     20          8           0       -7.046173    1.347155   10.483432
     21          8           0       -2.331445   -4.363538   10.558144
     22         74           0       -3.416764    0.720063    6.484714
     23         74           0       -6.007083   -3.824818    6.575843
     24         74           0       -3.628912    0.906190   11.415690
     25         74           0       -5.773510   -3.862392   11.472252
     26         74           0       -2.459691   -2.560722    6.390123
     27         74           0       -6.944205   -0.537894    6.359781
     28         74           0       -6.825287   -0.248213   11.577490
     29         74           0       -2.566200   -2.702989   11.618537
     30          8           0       -3.179701    1.915143    5.316069
     31          8           0       -6.148253   -5.072380    5.431876
     32          8           0       -2.718541    1.759292   12.569150
     33          8           0       -6.675638   -4.679744   12.656598
     34          8           0       -2.681510   -0.881621    5.582729
     35          8           0       -6.717182   -2.271038    5.625188
     36          8           0       -5.321909    0.564851   12.365506
     37          8           0       -4.060444   -3.517578   12.408244
     38          8           0        0.295599    0.002312    9.270386
     39          8           0       -9.714888   -3.026263    9.321136
     40          8           0       -6.376155    3.419412    8.660878
     41          8           0       -2.979030   -6.462208    8.760969
     42          8           0       -1.799326    0.773944    7.476067
     43          8           0       -7.612366   -3.880167    7.552529
     44          8           0       -4.522821    2.218956   10.432575
     45          8           0       -4.866788   -5.216825   10.524267
     46          8           0       -1.622605   -3.491390    5.240126
     47          8           0       -7.837347    0.259448    5.169547
     48          8           0       -8.042050   -0.155689   12.757133
     49          8           0       -1.331003   -2.835604   12.777546
     50         74           0       -1.264312   -0.516765    8.838453
     51         74           0       -8.154441   -2.519480    8.875296
     52         74           0       -5.905081    1.849857    9.048622
     53         74           0       -3.476954   -4.889806    9.169955
     54          8           0       -4.231710   -3.095192    6.067812
     55          8           0       -5.169890   -0.040965    6.006907
     56          8           0       -6.179263   -1.996476   11.917913
     57          8           0       -3.180500   -0.958279   11.936193
     58          8           0       -4.374887    1.580912    7.846544
     59          8           0       -5.007076   -4.674639    7.923974
     60          8           0       -2.339545    0.595274   10.081868
     61          8           0       -7.063869   -3.611096   10.137374
     62          8           0       -2.577747   -3.877666    7.863971
     63          8           0       -6.830252    0.782932    7.808257
     64          8           0       -7.838373   -1.173004   10.148271
     65          8           0       -1.576076   -1.844348   10.142718
     66          8           0       -3.375738   -1.137730    8.006537
     67          8           0       -6.033094   -1.951320    8.035936
     68          8           0       -5.127754   -0.196922    9.951502
     69          8           0       -4.246793   -2.827598    9.978781
     70         19           0       -3.224261   -6.135701    5.652054
     71         19           0       -0.125654    0.051631   12.358401
     72         19           0       -9.285830   -2.907376   12.429274
     73         23           0       -4.699021   -1.524244    8.989672
 ---------------------------------------------------------------------

 SCF Done:  E(RwB97XD) =  -7327.70065662     A.U. after   11 cycles

 Alpha  occ. eigenvalues -- -197.29583-130.00185-130.00183-130.00096-101.47684
 Alpha  occ. eigenvalues --  -22.62696 -19.33713 -19.33702 -19.33692 -19.33665
 Alpha  occ. eigenvalues --  -19.30709 -19.30672 -19.30666 -19.30654 -19.30647
 Alpha  occ. eigenvalues --  -19.30643 -19.30631 -19.30583 -19.30506 -19.30323
 Alpha  occ. eigenvalues --  -19.30293 -19.30069 -19.29314 -19.29311 -19.29280
 Alpha  occ. eigenvalues --  -19.29270 -19.29269 -19.29260 -19.29246 -19.29187
 Alpha  occ. eigenvalues --  -19.29182 -19.29161 -19.29134 -19.29126 -19.29110
 Alpha  occ. eigenvalues --  -19.29104 -19.29100 -19.29090 -19.29079 -19.29058
 Alpha  occ. eigenvalues --  -19.29044 -19.28961 -19.28958 -19.28935 -19.28920
 Alpha  occ. eigenvalues --  -19.28779 -19.11654 -19.11646 -19.11636 -13.37589
 Alpha  occ. eigenvalues --  -13.37588 -13.37491 -10.70518 -10.70517 -10.70511
 Alpha  occ. eigenvalues --  -10.70511 -10.70510 -10.70509 -10.70421 -10.70414
 Alpha  occ. eigenvalues --  -10.70411 -10.29843 -10.29350 -10.29297 -10.29103
 Alpha  occ. eigenvalues --  -10.29021 -10.28998 -10.28200 -10.27726  -9.38139
 Alpha  occ. eigenvalues --   -7.12961  -7.12921  -7.12920  -3.23276  -3.23273
 Alpha  occ. eigenvalues --   -3.23258  -3.23254  -3.23253  -3.23243  -3.23192
 Alpha  occ. eigenvalues --   -3.23189  -3.23142  -3.22921  -3.22919  -3.22671
 Alpha  occ. eigenvalues --   -2.91909  -1.94277  -1.94250  -1.94239  -1.87697
 Alpha  occ. eigenvalues --   -1.87638  -1.87617  -1.87562  -1.87461  -1.87451
 Alpha  occ. eigenvalues --   -1.87438  -1.87405  -1.87364  -1.87234  -1.87201
 Alpha  occ. eigenvalues --   -1.87011  -1.86592  -1.86472  -1.86465  -1.86440
 Alpha  occ. eigenvalues --   -1.86421  -1.86379  -1.86306  -1.86294  -1.86271
 Alpha  occ. eigenvalues --   -1.86254  -1.86229  -1.86198  -1.86109  -1.86089
 Alpha  occ. eigenvalues --   -1.86085  -1.86057  -1.86011  -1.85961  -1.85942
 Alpha  occ. eigenvalues --   -1.85883  -1.85851  -1.85758  -1.85629  -1.85571
 Alpha  occ. eigenvalues --   -1.51270  -1.51268  -1.51174  -1.13088  -1.11329
 Alpha  occ. eigenvalues --   -1.11242  -1.11225  -1.08959  -1.08508  -1.08458
 Alpha  occ. eigenvalues --   -1.08265  -1.07557  -1.07503  -1.07480  -1.06878
 Alpha  occ. eigenvalues --   -1.06848  -1.06828  -1.06291  -1.06259  -1.05293
 Alpha  occ. eigenvalues --   -1.05285  -1.04956  -1.04946  -1.04926  -1.04169
 Alpha  occ. eigenvalues --   -1.04167  -1.04141  -1.04001  -1.03980  -1.03962
 Alpha  occ. eigenvalues --   -1.03923  -1.03869  -1.03846  -1.03731  -1.03685
 Alpha  occ. eigenvalues --   -1.03593  -1.03539  -1.03263  -1.03225  -1.03090
 Alpha  occ. eigenvalues --   -1.03073  -1.03014  -1.02910  -0.94417  -0.86731
 Alpha  occ. eigenvalues --   -0.86728  -0.86640  -0.86582  -0.86543  -0.86541
 Alpha  occ. eigenvalues --   -0.86541  -0.86532  -0.86453  -0.86432  -0.82841
 Alpha  occ. eigenvalues --   -0.79835  -0.70833  -0.69808  -0.68073  -0.64557
 Alpha  occ. eigenvalues --   -0.63917  -0.63875  -0.63864  -0.63345  -0.63311
 Alpha  occ. eigenvalues --   -0.63208  -0.63065  -0.62695  -0.62618  -0.62012
 Alpha  occ. eigenvalues --   -0.61604  -0.61585  -0.61496  -0.61195  -0.61174
 Alpha  occ. eigenvalues --   -0.61141  -0.60390  -0.59450  -0.59424  -0.59413
 Alpha  occ. eigenvalues --   -0.59388  -0.59354  -0.58709  -0.57969  -0.57943
 Alpha  occ. eigenvalues --   -0.57875  -0.57088  -0.57053  -0.57019  -0.56276
 Alpha  occ. eigenvalues --   -0.56231  -0.56071  -0.55677  -0.54833  -0.54772
 Alpha  occ. eigenvalues --   -0.54732  -0.54598  -0.54219  -0.54105  -0.54060
 Alpha  occ. eigenvalues --   -0.54023  -0.53944  -0.53213  -0.53169  -0.53047
 Alpha  occ. eigenvalues --   -0.52977  -0.52869  -0.52692  -0.52629  -0.52599
 Alpha  occ. eigenvalues --   -0.52553  -0.52524  -0.52452  -0.52427  -0.51569
 Alpha  occ. eigenvalues --   -0.51547  -0.51370  -0.51327  -0.51300  -0.51241
 Alpha  occ. eigenvalues --   -0.51169  -0.51142  -0.51028  -0.50718  -0.50541
 Alpha  occ. eigenvalues --   -0.50534  -0.50501  -0.49881  -0.49870  -0.49302
 Alpha  occ. eigenvalues --   -0.49259  -0.49232  -0.49177  -0.49137  -0.49036
 Alpha  occ. eigenvalues --   -0.48887  -0.48073  -0.48018  -0.47909  -0.47718
 Alpha  occ. eigenvalues --   -0.47339  -0.47281  -0.47226  -0.47001  -0.46949
 Alpha  occ. eigenvalues --   -0.46821  -0.46544  -0.46493  -0.46430  -0.46218
 Alpha  occ. eigenvalues --   -0.46153  -0.46097  -0.45627  -0.45073  -0.44894
 Alpha  occ. eigenvalues --   -0.44863  -0.44169  -0.44147  -0.44021  -0.43606
 Alpha  occ. eigenvalues --   -0.43286  -0.43227  -0.43103  -0.43079  -0.43040
 Alpha  occ. eigenvalues --   -0.42703  -0.42674  -0.42648  -0.42586  -0.42581
 Alpha  occ. eigenvalues --   -0.42496  -0.42447  -0.42435  -0.42271  -0.42257
 Alpha  occ. eigenvalues --   -0.42228  -0.42005  -0.41888  -0.41836  -0.41818
 Alpha  occ. eigenvalues --   -0.41234  -0.41175  -0.41139  -0.41029  -0.40533
 Alpha  occ. eigenvalues --   -0.40519  -0.40503  -0.40419  -0.39429  -0.39404
 Alpha  occ. eigenvalues --   -0.36921  -0.32558  -0.28847  -0.24569  -0.24544
 Alpha  occ. eigenvalues --   -0.23359
 Alpha virt. eigenvalues --   -0.09565  -0.09363  -0.08385  -0.08336  -0.06955
 Alpha virt. eigenvalues --   -0.06894  -0.06796  -0.04544  -0.04232  -0.04206
 Alpha virt. eigenvalues --   -0.03689  -0.03527  -0.03440  -0.03201  -0.03101

 Mulliken charges:
               1
     1  Cl  -0.931081
     2  C   -0.077728
     3  C    0.041229
     4  C   -0.075642
     5  C   -0.033122
     6  C   -0.031164
     7  C   -0.049806
     8  H    0.029055
     9  H    0.030361
    10  H    0.040954
    11  H    0.037147
    12  H    0.039930
    13  C   -0.096912
    14  C    0.015189
    15  H    0.021261
    16  H    0.041395
    17  H    0.035601
    18  O   -0.663409
    19  O   -0.660222
    20  O   -0.654533
    21  O   -0.661712
    22  W    1.735328
    23  W    1.671238
    24  W    1.681082
    25  W    1.691608
    26  W    1.676078
    27  W    1.727619
    28  W    1.621073
    29  W    1.683772
    30  O   -0.321106
    31  O   -0.365224
    32  O   -0.365564
    33  O   -0.362299
    34  O   -0.664896
    35  O   -0.670383
    36  O   -0.661467
    37  O   -0.663297
    38  O   -0.366524
    39  O   -0.365886
    40  O   -0.293847
    41  O   -0.364843
    42  O   -0.669815
    43  O   -0.662971
    44  O   -0.659412
    45  O   -0.665647
    46  O   -0.366702
    47  O   -0.321017
    48  O   -0.355618
    49  O   -0.363383
    50  W    1.672473
    51  W    1.675676
    52  W    1.680860
    53  W    1.683503
    54  O   -0.723563
    55  O   -0.707325
    56  O   -0.726140
    57  O   -0.721719
    58  O   -0.707744
    59  O   -0.726399
    60  O   -0.724853
    61  O   -0.720836
    62  O   -0.724595
    63  O   -0.709183
    64  O   -0.723324
    65  O   -0.726495
    66  O   -0.802880
    67  O   -0.801656
    68  O   -0.799967
    69  O   -0.809551
    70  K    0.866771
    71  K    0.867088
    72  K    0.863493
    73  V    1.191679
 Sum of Mulliken charges =  -1.00000

 Dipole moment (field-independent basis, Debye):
    X=             51.8337    Y=            -51.4337    Z=            -38.5024  Tot=             82.5506
 Quadrupole moment (field-independent basis, Debye-Ang):
   XX=          -1070.2491   YY=           -880.5746   ZZ=           -909.7549
   XY=            459.6849   XZ=            464.4632   YZ=           -479.3295

 Normal termination of Gaussian 16 at Sun Jun  2 04:53:05 2024.
