 Gaussian 16, Revision C.01,
 Gaussian 16:  ES64L-G16RevC.01  3-Jul-2019

 ----------------------------------------------------------------------
 # def2svp wb97xd scrf=(smd,solvent=acetonitrile) g09default scf=(xqc,m
 axcycle=64) force guess=read nosymm
 ----------------------------------------------------------------------

 ----------
 Title Card
 ----------
 Symbolic Z-matrix:
 Charge = -1 Multiplicity = 1

                          Input orientation:
 ---------------------------------------------------------------------
 Center     Atomic      Atomic             Coordinates (Angstroms)
 Number     Number       Type             X           Y           Z
 ---------------------------------------------------------------------
      1         17           0       -9.931690    8.076334   10.516323
      2          6           0       -8.317152    4.236070   12.229067
      3          6           0       -9.088748    3.915978   11.097552
      4          6           0      -10.017005    2.863933   11.202152
      5          6           0      -10.193868    2.180158   12.400851
      6          6           0       -9.436623    2.526030   13.520805
      7          6           0       -8.489963    3.548570   13.426139
      8          1           0       -7.570816    5.031222   12.172478
      9          1           0      -10.602705    2.583539   10.322099
     10          1           0      -10.921529    1.367379   12.462262
     11          1           0       -9.572835    1.990409   14.462623
     12          1           0       -7.882750    3.813016   14.295536
     13          6           0       -8.968375    4.634162    9.827709
     14          6           0       -8.179396    5.696645    9.577285
     15          1           0       -9.604211    4.257003    9.019365
     16          1           0       -8.138861    6.129892    8.576376
     17          1           0       -7.491517    6.113262   10.316425
     18          8           0       -0.999057   -1.768687    7.458984
     19          8           0       -8.412332   -1.331014    7.461037
     20          8           0       -7.046173    1.347155   10.483432
     21          8           0       -2.331445   -4.363538   10.558144
     22         74           0       -3.416764    0.720063    6.484714
     23         74           0       -6.007083   -3.824818    6.575843
     24         74           0       -3.628912    0.906190   11.415690
     25         74           0       -5.773510   -3.862392   11.472252
     26         74           0       -2.459691   -2.560722    6.390123
     27         74           0       -6.944205   -0.537894    6.359781
     28         74           0       -6.825287   -0.248213   11.577490
     29         74           0       -2.566200   -2.702989   11.618537
     30          8           0       -3.179701    1.915143    5.316069
     31          8           0       -6.148253   -5.072380    5.431876
     32          8           0       -2.718541    1.759292   12.569150
     33          8           0       -6.675638   -4.679744   12.656598
     34          8           0       -2.681510   -0.881621    5.582729
     35          8           0       -6.717182   -2.271038    5.625188
     36          8           0       -5.321909    0.564851   12.365506
     37          8           0       -4.060444   -3.517578   12.408244
     38          8           0        0.295599    0.002312    9.270386
     39          8           0       -9.714888   -3.026263    9.321136
     40          8           0       -6.376155    3.419412    8.660878
     41          8           0       -2.979030   -6.462208    8.760969
     42          8           0       -1.799326    0.773944    7.476067
     43          8           0       -7.612366   -3.880167    7.552529
     44          8           0       -4.522821    2.218956   10.432575
     45          8           0       -4.866788   -5.216825   10.524267
     46          8           0       -1.622605   -3.491390    5.240126
     47          8           0       -7.837347    0.259448    5.169547
     48          8           0       -8.042050   -0.155689   12.757133
     49          8           0       -1.331003   -2.835604   12.777546
     50         74           0       -1.264312   -0.516765    8.838453
     51         74           0       -8.154441   -2.519480    8.875296
     52         74           0       -5.905081    1.849857    9.048622
     53         74           0       -3.476954   -4.889806    9.169955
     54          8           0       -4.231710   -3.095192    6.067812
     55          8           0       -5.169890   -0.040965    6.006907
     56          8           0       -6.179263   -1.996476   11.917913
     57          8           0       -3.180500   -0.958279   11.936193
     58          8           0       -4.374887    1.580912    7.846544
     59          8           0       -5.007076   -4.674639    7.923974
     60          8           0       -2.339545    0.595274   10.081868
     61          8           0       -7.063869   -3.611096   10.137374
     62          8           0       -2.577747   -3.877666    7.863971
     63          8           0       -6.830252    0.782932    7.808257
     64          8           0       -7.838373   -1.173004   10.148271
     65          8           0       -1.576076   -1.844348   10.142718
     66          8           0       -3.375738   -1.137730    8.006537
     67          8           0       -6.033094   -1.951320    8.035936
     68          8           0       -5.127754   -0.196922    9.951502
     69          8           0       -4.246793   -2.827598    9.978781
     70         19           0       -3.224261   -6.135701    5.652054
     71         19           0       -0.125654    0.051631   12.358401
     72         19           0       -9.285830   -2.907376   12.429274
     73         23           0       -4.699021   -1.524244    8.989672
 ---------------------------------------------------------------------

 SCF Done:  E(UwB97XD) =  -7327.70087578     A.U. after   36 cycles

 Alpha  occ. eigenvalues --  -19.24772 -18.94323 -18.93230 -18.93202 -13.36626
 Alpha  occ. eigenvalues --  -13.36583 -13.36568 -10.69553 -10.69548 -10.69548
 Alpha  occ. eigenvalues --  -10.69510 -10.69506 -10.69505 -10.69495 -10.69491
 Alpha  occ. eigenvalues --  -10.69488 -10.32776 -10.32084 -10.31768 -10.30857
 Alpha  occ. eigenvalues --  -10.30851 -10.30836 -10.30467 -10.30393  -9.52833
 Alpha  occ. eigenvalues --   -7.27721  -7.27366  -7.27361  -3.21060  -3.21031
 Alpha  occ. eigenvalues --   -3.21028  -3.21023  -3.21001  -3.20983  -3.20975
 Alpha  occ. eigenvalues --   -3.20970  -3.20965  -3.20839  -3.20806  -3.20787
 Alpha  occ. eigenvalues --   -2.78984  -1.85306  -1.85275  -1.85254  -1.85225
 Alpha  occ. eigenvalues --   -1.85100  -1.85055  -1.85034  -1.85013  -1.84999
 Alpha  occ. eigenvalues --   -1.84995  -1.84971  -1.84907  -1.84355  -1.84243
 Alpha  occ. eigenvalues --   -1.84229  -1.84223  -1.84184  -1.84179  -1.84109
 Alpha  occ. eigenvalues --   -1.84094  -1.84073  -1.84062  -1.84042  -1.84028
 Alpha  occ. eigenvalues --   -1.83905  -1.83879  -1.83861  -1.83856  -1.83820
 Alpha  occ. eigenvalues --   -1.83788  -1.83767  -1.83764  -1.83749  -1.83649
 Alpha  occ. eigenvalues --   -1.83642  -1.83632  -1.82127  -1.81795  -1.81771
 Alpha  occ. eigenvalues --   -1.50320  -1.50279  -1.50265  -1.08616  -1.06986
 Alpha  occ. eigenvalues --   -1.06943  -1.06918  -1.05998  -1.05978  -1.05942
 Alpha  occ. eigenvalues --   -1.04559  -1.04544  -1.04540  -1.03961  -1.03948
 Alpha  occ. eigenvalues --   -1.03758  -1.03361  -1.03327  -1.03302  -1.03022
 Alpha  occ. eigenvalues --   -1.02991  -1.02261  -1.02247  -1.02214  -1.02051
 Alpha  occ. eigenvalues --   -1.01998  -1.01965  -1.01899  -1.01871  -1.01769
 Alpha  occ. eigenvalues --   -1.01730  -1.01719  -1.01608  -1.01561  -1.01537
 Alpha  occ. eigenvalues --   -1.01281  -1.00821  -1.00738  -1.00695  -1.00684
 Alpha  occ. eigenvalues --   -1.00057  -0.99987  -0.99932  -0.96067  -0.89139
 Alpha  occ. eigenvalues --   -0.85755  -0.85715  -0.85705  -0.85607  -0.85597
 Alpha  occ. eigenvalues --   -0.85565  -0.85563  -0.85558  -0.85534  -0.84166
 Alpha  occ. eigenvalues --   -0.82261  -0.81151  -0.71809  -0.69532  -0.64949
 Alpha  occ. eigenvalues --   -0.62288  -0.61665  -0.61636  -0.61602  -0.60507
 Alpha  occ. eigenvalues --   -0.58949  -0.58930  -0.58912  -0.58863  -0.58802
 Alpha  occ. eigenvalues --   -0.58756  -0.58737  -0.58691  -0.58533  -0.57397
 Alpha  occ. eigenvalues --   -0.57364  -0.57335  -0.57049  -0.56643  -0.56485
 Alpha  occ. eigenvalues --   -0.56441  -0.56402  -0.56035  -0.55884  -0.55362
 Alpha  occ. eigenvalues --   -0.55351  -0.55323  -0.54326  -0.54171  -0.54147
 Alpha  occ. eigenvalues --   -0.53954  -0.53702  -0.53654  -0.53631  -0.52682
 Alpha  occ. eigenvalues --   -0.52588  -0.52571  -0.52475  -0.52430  -0.51468
 Alpha  occ. eigenvalues --   -0.51458  -0.51449  -0.51371  -0.51307  -0.50666
 Alpha  occ. eigenvalues --   -0.50526  -0.50520  -0.50458  -0.50364  -0.50252
 Alpha  occ. eigenvalues --   -0.50213  -0.50053  -0.49998  -0.49987  -0.49720
 Alpha  occ. eigenvalues --   -0.49631  -0.49597  -0.49486  -0.49450  -0.49297
 Alpha  occ. eigenvalues --   -0.49266  -0.49199  -0.49111  -0.49072  -0.48992
 Alpha  occ. eigenvalues --   -0.48660  -0.48511  -0.48475  -0.48423  -0.47674
 Alpha  occ. eigenvalues --   -0.47643  -0.47122  -0.46477  -0.46042  -0.46013
 Alpha  occ. eigenvalues --   -0.45870  -0.45757  -0.45676  -0.45584  -0.45187
 Alpha  occ. eigenvalues --   -0.45146  -0.45132  -0.44805  -0.44602  -0.44484
 Alpha  occ. eigenvalues --   -0.44469  -0.44444  -0.44278  -0.44206  -0.44191
 Alpha  occ. eigenvalues --   -0.43467  -0.42988  -0.42559  -0.42509  -0.42454
 Alpha  occ. eigenvalues --   -0.42323  -0.42183  -0.42171  -0.42047  -0.41635
 Alpha  occ. eigenvalues --   -0.41619  -0.41569  -0.41019  -0.40974  -0.40786
 Alpha  occ. eigenvalues --   -0.40744  -0.40739  -0.40386  -0.40375  -0.40321
 Alpha  occ. eigenvalues --   -0.40203  -0.40171  -0.40143  -0.40118  -0.39849
 Alpha  occ. eigenvalues --   -0.39354  -0.39283  -0.39269  -0.39146  -0.39077
 Alpha  occ. eigenvalues --   -0.38926  -0.38897  -0.38836  -0.38791  -0.38718
 Alpha  occ. eigenvalues --   -0.38299  -0.38269  -0.38237  -0.37825  -0.37190
 Alpha  occ. eigenvalues --   -0.37179  -0.34900  -0.34886  -0.33559  -0.29840
 Alpha  occ. eigenvalues --   -0.25962
 Alpha virt. eigenvalues --   -0.12358  -0.06264  -0.06225  -0.04812  -0.04735
 Alpha virt. eigenvalues --   -0.04626  -0.01506  -0.01397  -0.01328  -0.01089
 Alpha virt. eigenvalues --   -0.00910  -0.00881  -0.00831  -0.00119  -0.00058

  Beta  occ. eigenvalues -- -197.11076-129.99215-129.99173-129.99167-101.62839
  Beta  occ. eigenvalues --  -22.43481 -19.28506 -19.28495 -19.28456 -19.28373
  Beta  occ. eigenvalues --  -19.28362 -19.28344 -19.28336 -19.28335 -19.28320
  Beta  occ. eigenvalues --  -19.28238 -19.28199 -19.28114 -19.26930 -19.26898
  Beta  occ. eigenvalues --  -19.26883 -19.26878 -19.26863 -19.26862 -19.26837
  Beta  occ. eigenvalues --  -19.26835 -19.26817 -19.26790 -19.26787 -19.26778
  Beta  occ. eigenvalues --  -19.26773 -19.26773 -19.26771 -19.26767 -19.26748
  Beta  occ. eigenvalues --  -19.26735 -19.26729 -19.26728 -19.26720 -19.26716
  Beta  occ. eigenvalues --  -19.26651 -19.26602 -19.24840 -19.24797 -19.24768
  Beta  occ. eigenvalues --  -19.24747 -18.93977 -18.91780 -18.91724 -13.36626
  Beta  occ. eigenvalues --  -13.36583 -13.36568 -10.69553 -10.69548 -10.69548
  Beta  occ. eigenvalues --  -10.69510 -10.69506 -10.69505 -10.69495 -10.69491
  Beta  occ. eigenvalues --  -10.69488 -10.33004 -10.32239 -10.31728 -10.30959
  Beta  occ. eigenvalues --  -10.30942 -10.30920 -10.30418 -10.30342  -9.53295
  Beta  occ. eigenvalues --   -7.29180  -7.27683  -7.27678  -3.21060  -3.21031
  Beta  occ. eigenvalues --   -3.21024  -3.21021  -3.20996  -3.20977  -3.20969
  Beta  occ. eigenvalues --   -3.20964  -3.20959  -3.20839  -3.20802  -3.20782
  Beta  occ. eigenvalues --   -2.74916  -1.85302  -1.85269  -1.85250  -1.85217
  Beta  occ. eigenvalues --   -1.85094  -1.85050  -1.85027  -1.85005  -1.84993
  Beta  occ. eigenvalues --   -1.84986  -1.84966  -1.84898  -1.84353  -1.84241
  Beta  occ. eigenvalues --   -1.84227  -1.84220  -1.84181  -1.84176  -1.84106
  Beta  occ. eigenvalues --   -1.84092  -1.84070  -1.84059  -1.84039  -1.84024
  Beta  occ. eigenvalues --   -1.83903  -1.83876  -1.83858  -1.83853  -1.83817
  Beta  occ. eigenvalues --   -1.83785  -1.83764  -1.83761  -1.83746  -1.83647
  Beta  occ. eigenvalues --   -1.83640  -1.83629  -1.80786  -1.76089  -1.75961
  Beta  occ. eigenvalues --   -1.50320  -1.50279  -1.50265  -1.08598  -1.06967
  Beta  occ. eigenvalues --   -1.06919  -1.06891  -1.05997  -1.05975  -1.05941
  Beta  occ. eigenvalues --   -1.04561  -1.04544  -1.04539  -1.03960  -1.03950
  Beta  occ. eigenvalues --   -1.03691  -1.03326  -1.03288  -1.03265  -1.03022
  Beta  occ. eigenvalues --   -1.02984  -1.02241  -1.02222  -1.02197  -1.02043
  Beta  occ. eigenvalues --   -1.01993  -1.01952  -1.01895  -1.01859  -1.01766
  Beta  occ. eigenvalues --   -1.01728  -1.01715  -1.01607  -1.01559  -1.01522
  Beta  occ. eigenvalues --   -1.01282  -1.00783  -1.00738  -1.00694  -1.00684
  Beta  occ. eigenvalues --   -0.99926  -0.99861  -0.99813  -0.96265  -0.89753
  Beta  occ. eigenvalues --   -0.85755  -0.85715  -0.85705  -0.85607  -0.85597
  Beta  occ. eigenvalues --   -0.85565  -0.85563  -0.85558  -0.85534  -0.84753
  Beta  occ. eigenvalues --   -0.84254  -0.82634  -0.72052  -0.69641  -0.65169
  Beta  occ. eigenvalues --   -0.62288  -0.61665  -0.61636  -0.61601  -0.60684
  Beta  occ. eigenvalues --   -0.58937  -0.58929  -0.58910  -0.58786  -0.58759
  Beta  occ. eigenvalues --   -0.58727  -0.58714  -0.58652  -0.58533  -0.57367
  Beta  occ. eigenvalues --   -0.57209  -0.57167  -0.56997  -0.56814  -0.56488
  Beta  occ. eigenvalues --   -0.56409  -0.56367  -0.55840  -0.55625  -0.55344
  Beta  occ. eigenvalues --   -0.55334  -0.55323  -0.54488  -0.54166  -0.54136
  Beta  occ. eigenvalues --   -0.53941  -0.53663  -0.53635  -0.53591  -0.52723
  Beta  occ. eigenvalues --   -0.52620  -0.52560  -0.52455  -0.52422  -0.51458
  Beta  occ. eigenvalues --   -0.51430  -0.51426  -0.51298  -0.51240  -0.50815
  Beta  occ. eigenvalues --   -0.50479  -0.50461  -0.50402  -0.50308  -0.50209
  Beta  occ. eigenvalues --   -0.50146  -0.50023  -0.49992  -0.49965  -0.49668
  Beta  occ. eigenvalues --   -0.49608  -0.49574  -0.49477  -0.49438  -0.49298
  Beta  occ. eigenvalues --   -0.49242  -0.49198  -0.49078  -0.49057  -0.48967
  Beta  occ. eigenvalues --   -0.48653  -0.48519  -0.48470  -0.48414  -0.47768
  Beta  occ. eigenvalues --   -0.47613  -0.47537  -0.45905  -0.45893  -0.45802
  Beta  occ. eigenvalues --   -0.45781  -0.45670  -0.45557  -0.45189  -0.45166
  Beta  occ. eigenvalues --   -0.45138  -0.45052  -0.44805  -0.44602  -0.44468
  Beta  occ. eigenvalues --   -0.44424  -0.44405  -0.44269  -0.44188  -0.44166
  Beta  occ. eigenvalues --   -0.43463  -0.43075  -0.42504  -0.42477  -0.42404
  Beta  occ. eigenvalues --   -0.42260  -0.42145  -0.42133  -0.42114  -0.41614
  Beta  occ. eigenvalues --   -0.41602  -0.41549  -0.41274  -0.41024  -0.40925
  Beta  occ. eigenvalues --   -0.40746  -0.40712  -0.40644  -0.40370  -0.40362
  Beta  occ. eigenvalues --   -0.40299  -0.40156  -0.40128  -0.40113  -0.39792
  Beta  occ. eigenvalues --   -0.39637  -0.39356  -0.39171  -0.39122  -0.39098
  Beta  occ. eigenvalues --   -0.38907  -0.38873  -0.38848  -0.38794  -0.38734
  Beta  occ. eigenvalues --   -0.38691  -0.38299  -0.38265  -0.38234  -0.37869
  Beta  occ. eigenvalues --   -0.37192  -0.37175  -0.35875  -0.35862  -0.33796
  Beta  occ. eigenvalues --   -0.30778
  Beta virt. eigenvalues --   -0.06262  -0.06226  -0.04811  -0.04734  -0.04625
  Beta virt. eigenvalues --   -0.01502  -0.01392  -0.01323  -0.01083  -0.00905
  Beta virt. eigenvalues --   -0.00877  -0.00827  -0.00111  -0.00045  -0.00008

 Mulliken charges and spin densities:
               1          2
     1  Cl  -0.339963  -0.632736
     2  C   -0.037377  -0.081278
     3  C    0.014805   0.044650
     4  C   -0.035920  -0.077632
     5  C   -0.030813   0.049977
     6  C    0.006193  -0.099470
     7  C   -0.048341   0.049738
     8  H    0.047291   0.003504
     9  H    0.049530   0.003345
    10  H    0.054266  -0.001758
    11  H    0.055152   0.004372
    12  H    0.053093  -0.001729
    13  C   -0.000121  -0.204325
    14  C   -0.035163  -0.069124
    15  H    0.072314   0.008730
    16  H    0.094308   0.003936
    17  H    0.090186   0.002943
    18  O   -0.672275  -0.000573
    19  O   -0.669169  -0.000506
    20  O   -0.665762  -0.001799
    21  O   -0.670824  -0.000528
    22  W    1.718849   0.000363
    23  W    1.657071   0.000504
    24  W    1.668877   0.000194
    25  W    1.677885   0.000199
    26  W    1.662553   0.002709
    27  W    1.710157   0.002477
    28  W    1.612822   0.003253
    29  W    1.669749   0.002859
    30  O   -0.350882  -0.000540
    31  O   -0.393568  -0.000560
    32  O   -0.393853  -0.000610
    33  O   -0.390975  -0.000558
    34  O   -0.673340  -0.000313
    35  O   -0.677820  -0.000078
    36  O   -0.670425  -0.000144
    37  O   -0.672254  -0.000239
    38  O   -0.396265   0.002008
    39  O   -0.395858   0.002026
    40  O   -0.339291  -0.000788
    41  O   -0.394834   0.002004
    42  O   -0.677553   0.000095
    43  O   -0.671631   0.000181
    44  O   -0.668135   0.000312
    45  O   -0.674059   0.000118
    46  O   -0.396682   0.002339
    47  O   -0.352681   0.002242
    48  O   -0.388459   0.001831
    49  O   -0.393533   0.002407
    50  W    1.658442   0.002683
    51  W    1.661535   0.002575
    52  W    1.675504   0.003710
    53  W    1.669117   0.002496
    54  O   -0.721618   0.000092
    55  O   -0.705941   0.000003
    56  O   -0.722856   0.000159
    57  O   -0.720106   0.000051
    58  O   -0.705132  -0.000002
    59  O   -0.723664   0.000143
    60  O   -0.722400   0.000196
    61  O   -0.718639   0.000190
    62  O   -0.723022  -0.000169
    63  O   -0.707628  -0.000015
    64  O   -0.722412  -0.000189
    65  O   -0.724410  -0.000202
    66  O   -0.885502   0.004989
    67  O   -0.884965   0.007117
    68  O   -0.883364   0.007019
    69  O   -0.889572   0.006508
    70  K    0.853334   0.000185
    71  K    0.853877   0.000204
    72  K    0.849939   0.000224
    73  V    1.202205   0.938005
 Sum of Mulliken charges =  -1.00000   0.00000

 Dipole moment (field-independent basis, Debye):
    X=             29.1781    Y=            -13.8037    Z=            -30.6026  Tot=             44.4795
 Quadrupole moment (field-independent basis, Debye-Ang):
   XX=           -776.3805   YY=           -702.0046   ZZ=           -779.6452
   XY=            131.7570   XZ=            185.0653   YZ=            -94.0915

 Normal termination of Gaussian 16 at Sun Jun  2 04:42:29 2024.
