 Gaussian 16, Revision C.01,
 Gaussian 16:  ES64L-G16RevC.01  3-Jul-2019

 ----------------------------------------------------------------------
 # def2svp wb97xd scrf=(smd,solvent=acetonitrile) g09default scf=(xqc,m
 axcycle=64) force guess=read nosymm
 ----------------------------------------------------------------------

 ----------
 Title Card
 ----------
 Symbolic Z-matrix:
 Charge = -1 Multiplicity = 1

                          Input orientation:
 ---------------------------------------------------------------------
 Center     Atomic      Atomic             Coordinates (Angstroms)
 Number     Number       Type             X           Y           Z
 ---------------------------------------------------------------------
      1         17           0       -9.836177    7.490098   10.358694
      2          6           0       -8.306108    4.256638   12.242220
      3          6           0       -9.078506    3.939057   11.105881
      4          6           0      -10.011534    2.887781   11.192742
      5          6           0      -10.185495    2.190069   12.377196
      6          6           0       -9.424410    2.525250   13.500988
      7          6           0       -8.481459    3.553830   13.425047
      8          1           0       -7.570784    5.061931   12.198869
      9          1           0      -10.599963    2.628175   10.308449
     10          1           0      -10.912333    1.378438   12.433410
     11          1           0       -9.558985    1.976764   14.434107
     12          1           0       -7.882684    3.808623   14.302917
     13          6           0       -8.951298    4.665120    9.854146
     14          6           0       -8.123634    5.712512    9.601357
     15          1           0       -9.610425    4.319954    9.042181
     16          1           0       -8.040474    6.116476    8.582748
     17          1           0       -7.354899    6.041385   10.315583
     18          8           0       -0.968221   -1.765555    7.441651
     19          8           0       -8.452576   -1.321427    7.449368
     20          8           0       -7.091501    1.371041   10.506307
     21          8           0       -2.308072   -4.378624   10.579807
     22         74           0       -3.417718    0.742057    6.528353
     23         74           0       -6.026021   -3.821004    6.607499
     24         74           0       -3.648044    0.927647   11.379903
     25         74           0       -5.763255   -3.875187   11.451497
     26         74           0       -2.478411   -2.528341    6.378269
     27         74           0       -6.941527   -0.552914    6.354167
     28         74           0       -6.810986   -0.249774   11.597781
     29         74           0       -2.591161   -2.695068   11.627103
     30          8           0       -3.210744    1.928350    5.366965
     31          8           0       -6.133276   -5.067221    5.476806
     32          8           0       -2.719002    1.752321   12.522171
     33          8           0       -6.685129   -4.663037   12.623205
     34          8           0       -2.681347   -0.857605    5.568756
     35          8           0       -6.732307   -2.279233    5.607890
     36          8           0       -5.330319    0.587249   12.386873
     37          8           0       -4.065800   -3.527275   12.434736
     38          8           0        0.274815   -0.007604    9.280805
     39          8           0       -9.695932   -3.011335    9.342771
     40          8           0       -6.452457    3.398769    8.677712
     41          8           0       -2.976446   -6.429017    8.741039
     42          8           0       -1.787288    0.799559    7.480866
     43          8           0       -7.640734   -3.889499    7.552916
     44          8           0       -4.546906    2.255889   10.434632
     45          8           0       -4.862063   -5.240856   10.532759
     46          8           0       -1.659359   -3.469953    5.240275
     47          8           0       -7.807124    0.254438    5.170892
     48          8           0       -8.023474   -0.181237   12.768604
     49          8           0       -1.356450   -2.789485   12.773424
     50         74           0       -1.262529   -0.539982    8.827881
     51         74           0       -8.160411   -2.488351    8.872292
     52         74           0       -5.967071    1.848515    9.065790
     53         74           0       -3.450474   -4.869413    9.178006
     54          8           0       -4.242953   -3.072828    6.086760
     55          8           0       -5.170654   -0.051816    6.035774
     56          8           0       -6.167036   -1.990079   11.908927
     57          8           0       -3.215346   -0.957717   11.915196
     58          8           0       -4.399080    1.591191    7.867792
     59          8           0       -5.013496   -4.649704    7.949306
     60          8           0       -2.365983    0.591882   10.061520
     61          8           0       -7.046694   -3.597476   10.122681
     62          8           0       -2.569692   -3.862842    7.870361
     63          8           0       -6.861544    0.788647    7.812624
     64          8           0       -7.847936   -1.158843   10.153069
     65          8           0       -1.573416   -1.844404   10.143556
     66          8           0       -3.322411   -1.134234    7.995691
     67          8           0       -6.098651   -1.938109    8.020260
     68          8           0       -5.188876   -0.143873    9.967844
     69          8           0       -4.208799   -2.863018   10.004104
     70         19           0       -3.247730   -6.066223    5.704487
     71         19           0       -0.201086    0.015971   12.311030
     72         19           0       -9.213318   -2.917796   12.364052
     73         23           0       -4.705585   -1.516076    8.994536
 ---------------------------------------------------------------------

 SCF Done:  E(RwB97XD) =  -7327.64995957     A.U. after   21 cycles

 Alpha  occ. eigenvalues -- -197.33992-129.99988-129.99941-129.99829-101.48765
 Alpha  occ. eigenvalues --  -22.66601 -19.35236 -19.35199 -19.35189 -19.35152
 Alpha  occ. eigenvalues --  -19.30935 -19.30896 -19.30870 -19.30858 -19.30813
 Alpha  occ. eigenvalues --  -19.30807 -19.30778 -19.30719 -19.30550 -19.30512
 Alpha  occ. eigenvalues --  -19.30432 -19.29987 -19.29433 -19.29391 -19.29368
 Alpha  occ. eigenvalues --  -19.29327 -19.29318 -19.29311 -19.29295 -19.29263
 Alpha  occ. eigenvalues --  -19.29255 -19.29227 -19.29219 -19.29174 -19.29160
 Alpha  occ. eigenvalues --  -19.29155 -19.29120 -19.29103 -19.29072 -19.29035
 Alpha  occ. eigenvalues --  -19.28972 -19.28965 -19.28923 -19.28882 -19.28796
 Alpha  occ. eigenvalues --  -19.28570 -19.15629 -19.15618 -19.15591 -13.37381
 Alpha  occ. eigenvalues --  -13.37334 -13.37210 -10.70312 -10.70305 -10.70304
 Alpha  occ. eigenvalues --  -10.70265 -10.70257 -10.70257 -10.70142 -10.70134
 Alpha  occ. eigenvalues --  -10.70132 -10.29012 -10.28833 -10.28772 -10.28303
 Alpha  occ. eigenvalues --  -10.28200 -10.28156 -10.28135 -10.25457  -9.39299
 Alpha  occ. eigenvalues --   -7.14167  -7.14043  -7.14030  -3.23322  -3.23305
 Alpha  occ. eigenvalues --   -3.23284  -3.23268  -3.23255  -3.23253  -3.23170
 Alpha  occ. eigenvalues --   -3.23125  -3.23040  -3.22844  -3.22822  -3.22346
 Alpha  occ. eigenvalues --   -2.94622  -1.96627  -1.96608  -1.96604  -1.87963
 Alpha  occ. eigenvalues --   -1.87864  -1.87848  -1.87711  -1.87697  -1.87692
 Alpha  occ. eigenvalues --   -1.87650  -1.87606  -1.87473  -1.87419  -1.87388
 Alpha  occ. eigenvalues --   -1.86952  -1.86606  -1.86488  -1.86475  -1.86440
 Alpha  occ. eigenvalues --   -1.86417  -1.86341  -1.86302  -1.86271  -1.86247
 Alpha  occ. eigenvalues --   -1.86231  -1.86169  -1.86146  -1.86107  -1.86071
 Alpha  occ. eigenvalues --   -1.86034  -1.86010  -1.85986  -1.85871  -1.85855
 Alpha  occ. eigenvalues --   -1.85775  -1.85735  -1.85662  -1.85357  -1.85251
 Alpha  occ. eigenvalues --   -1.51087  -1.51041  -1.50920  -1.14046  -1.12545
 Alpha  occ. eigenvalues --   -1.12434  -1.12383  -1.09143  -1.08549  -1.08447
 Alpha  occ. eigenvalues --   -1.08152  -1.07719  -1.07617  -1.07572  -1.06824
 Alpha  occ. eigenvalues --   -1.06777  -1.06729  -1.06217  -1.06136  -1.05360
 Alpha  occ. eigenvalues --   -1.05351  -1.04932  -1.04902  -1.04868  -1.04409
 Alpha  occ. eigenvalues --   -1.04392  -1.04349  -1.04254  -1.04210  -1.04104
 Alpha  occ. eigenvalues --   -1.04032  -1.03986  -1.03977  -1.03965  -1.03855
 Alpha  occ. eigenvalues --   -1.03821  -1.03546  -1.03529  -1.03463  -1.03090
 Alpha  occ. eigenvalues --   -1.03081  -1.02992  -1.02875  -0.93708  -0.86576
 Alpha  occ. eigenvalues --   -0.86531  -0.86420  -0.86374  -0.86370  -0.86328
 Alpha  occ. eigenvalues --   -0.86322  -0.86213  -0.86198  -0.85520  -0.82378
 Alpha  occ. eigenvalues --   -0.78880  -0.72046  -0.69082  -0.67403  -0.64387
 Alpha  occ. eigenvalues --   -0.64020  -0.63937  -0.63777  -0.63733  -0.63694
 Alpha  occ. eigenvalues --   -0.63645  -0.63305  -0.63110  -0.62894  -0.62322
 Alpha  occ. eigenvalues --   -0.62116  -0.62075  -0.61948  -0.61053  -0.61025
 Alpha  occ. eigenvalues --   -0.60911  -0.60353  -0.59618  -0.59561  -0.59537
 Alpha  occ. eigenvalues --   -0.59430  -0.59317  -0.58067  -0.58017  -0.57982
 Alpha  occ. eigenvalues --   -0.57936  -0.57915  -0.57880  -0.57784  -0.56487
 Alpha  occ. eigenvalues --   -0.56453  -0.56248  -0.55833  -0.55106  -0.55053
 Alpha  occ. eigenvalues --   -0.54970  -0.54461  -0.54370  -0.54263  -0.54158
 Alpha  occ. eigenvalues --   -0.54138  -0.53804  -0.53306  -0.53279  -0.53137
 Alpha  occ. eigenvalues --   -0.53063  -0.52961  -0.52686  -0.52632  -0.52555
 Alpha  occ. eigenvalues --   -0.52495  -0.52404  -0.52290  -0.51912  -0.51892
 Alpha  occ. eigenvalues --   -0.51847  -0.51691  -0.51645  -0.51612  -0.51602
 Alpha  occ. eigenvalues --   -0.51537  -0.51472  -0.50978  -0.50797  -0.50773
 Alpha  occ. eigenvalues --   -0.50714  -0.50271  -0.49995  -0.49949  -0.49545
 Alpha  occ. eigenvalues --   -0.49393  -0.49361  -0.49243  -0.49061  -0.49005
 Alpha  occ. eigenvalues --   -0.48872  -0.48501  -0.48303  -0.48111  -0.47459
 Alpha  occ. eigenvalues --   -0.47412  -0.47314  -0.47162  -0.47055  -0.46908
 Alpha  occ. eigenvalues --   -0.46674  -0.46611  -0.46571  -0.46503  -0.46479
 Alpha  occ. eigenvalues --   -0.46402  -0.46336  -0.45219  -0.45172  -0.45015
 Alpha  occ. eigenvalues --   -0.44910  -0.44291  -0.44231  -0.44063  -0.43455
 Alpha  occ. eigenvalues --   -0.43381  -0.43275  -0.43227  -0.43156  -0.42874
 Alpha  occ. eigenvalues --   -0.42836  -0.42824  -0.42787  -0.42736  -0.42705
 Alpha  occ. eigenvalues --   -0.42644  -0.42570  -0.42553  -0.42397  -0.42371
 Alpha  occ. eigenvalues --   -0.42339  -0.42167  -0.42080  -0.41901  -0.41880
 Alpha  occ. eigenvalues --   -0.41266  -0.41248  -0.41084  -0.40612  -0.40557
 Alpha  occ. eigenvalues --   -0.40526  -0.40508  -0.39602  -0.39440  -0.39401
 Alpha  occ. eigenvalues --   -0.36410  -0.32191  -0.29591  -0.25625  -0.25486
 Alpha  occ. eigenvalues --   -0.21004
 Alpha virt. eigenvalues --   -0.13097  -0.12613  -0.08598  -0.08202  -0.08049
 Alpha virt. eigenvalues --   -0.07656  -0.07642  -0.06766  -0.06725  -0.06600
 Alpha virt. eigenvalues --   -0.03759  -0.03579  -0.03543  -0.03133  -0.02988

 Mulliken charges:
               1
     1  Cl  -0.838135
     2  C   -0.095068
     3  C    0.055528
     4  C   -0.087473
     5  C   -0.031619
     6  C   -0.048597
     7  C   -0.049395
     8  H    0.017584
     9  H    0.021099
    10  H    0.033998
    11  H    0.028027
    12  H    0.033250
    13  C   -0.095548
    14  C    0.043844
    15  H   -0.006585
    16  H    0.032817
    17  H    0.037060
    18  O   -0.659166
    19  O   -0.657380
    20  O   -0.649658
    21  O   -0.659524
    22  W    1.726677
    23  W    1.665681
    24  W    1.674684
    25  W    1.687509
    26  W    1.676105
    27  W    1.729291
    28  W    1.623147
    29  W    1.688565
    30  O   -0.308993
    31  O   -0.357646
    32  O   -0.358559
    33  O   -0.355612
    34  O   -0.661052
    35  O   -0.669708
    36  O   -0.658796
    37  O   -0.661311
    38  O   -0.359952
    39  O   -0.361004
    40  O   -0.279339
    41  O   -0.358311
    42  O   -0.668256
    43  O   -0.659465
    44  O   -0.655680
    45  O   -0.662052
    46  O   -0.359531
    47  O   -0.310035
    48  O   -0.348236
    49  O   -0.357957
    50  W    1.674943
    51  W    1.679264
    52  W    1.668909
    53  W    1.684766
    54  O   -0.725132
    55  O   -0.709451
    56  O   -0.728565
    57  O   -0.723017
    58  O   -0.707961
    59  O   -0.728912
    60  O   -0.726164
    61  O   -0.724560
    62  O   -0.724438
    63  O   -0.709314
    64  O   -0.723683
    65  O   -0.728400
    66  O   -0.809230
    67  O   -0.808805
    68  O   -0.803735
    69  O   -0.818488
    70  K    0.861309
    71  K    0.860658
    72  K    0.856165
    73  V    1.128616
 Sum of Mulliken charges =  -1.00000

 Dipole moment (field-independent basis, Debye):
    X=             51.0982    Y=            -46.3373    Z=            -39.0337  Tot=             79.2578
 Quadrupole moment (field-independent basis, Debye-Ang):
   XX=          -1063.9489   YY=           -821.4441   ZZ=           -926.1335
   XY=            406.7283   XZ=            460.1658   YZ=           -426.0004

 Normal termination of Gaussian 16 at Sat Jun  1 11:39:09 2024.
