 Gaussian 16, Revision C.01,
 Gaussian 16:  ES64L-G16RevC.01  3-Jul-2019

 ----------------------------------------------------------------------
 # def2svp wb97xd scrf=(smd,solvent=acetonitrile) g09default scf=(xqc,m
 axcycle=64) force guess=read nosymm
 ----------------------------------------------------------------------

 ----------
 Title Card
 ----------
 Symbolic Z-matrix:
 Charge = -1 Multiplicity = 1

                          Input orientation:
 ---------------------------------------------------------------------
 Center     Atomic      Atomic             Coordinates (Angstroms)
 Number     Number       Type             X           Y           Z
 ---------------------------------------------------------------------
      1         17           0       -9.836177    7.490098   10.358694
      2          6           0       -8.306108    4.256638   12.242220
      3          6           0       -9.078506    3.939057   11.105881
      4          6           0      -10.011534    2.887781   11.192742
      5          6           0      -10.185495    2.190069   12.377196
      6          6           0       -9.424410    2.525250   13.500988
      7          6           0       -8.481459    3.553830   13.425047
      8          1           0       -7.570784    5.061931   12.198869
      9          1           0      -10.599963    2.628175   10.308449
     10          1           0      -10.912333    1.378438   12.433410
     11          1           0       -9.558985    1.976764   14.434107
     12          1           0       -7.882684    3.808623   14.302917
     13          6           0       -8.951298    4.665120    9.854146
     14          6           0       -8.123634    5.712512    9.601357
     15          1           0       -9.610425    4.319954    9.042181
     16          1           0       -8.040474    6.116476    8.582748
     17          1           0       -7.354899    6.041385   10.315583
     18          8           0       -0.968221   -1.765555    7.441651
     19          8           0       -8.452576   -1.321427    7.449368
     20          8           0       -7.091501    1.371041   10.506307
     21          8           0       -2.308072   -4.378624   10.579807
     22         74           0       -3.417718    0.742057    6.528353
     23         74           0       -6.026021   -3.821004    6.607499
     24         74           0       -3.648044    0.927647   11.379903
     25         74           0       -5.763255   -3.875187   11.451497
     26         74           0       -2.478411   -2.528341    6.378269
     27         74           0       -6.941527   -0.552914    6.354167
     28         74           0       -6.810986   -0.249774   11.597781
     29         74           0       -2.591161   -2.695068   11.627103
     30          8           0       -3.210744    1.928350    5.366965
     31          8           0       -6.133276   -5.067221    5.476806
     32          8           0       -2.719002    1.752321   12.522171
     33          8           0       -6.685129   -4.663037   12.623205
     34          8           0       -2.681347   -0.857605    5.568756
     35          8           0       -6.732307   -2.279233    5.607890
     36          8           0       -5.330319    0.587249   12.386873
     37          8           0       -4.065800   -3.527275   12.434736
     38          8           0        0.274815   -0.007604    9.280805
     39          8           0       -9.695932   -3.011335    9.342771
     40          8           0       -6.452457    3.398769    8.677712
     41          8           0       -2.976446   -6.429017    8.741039
     42          8           0       -1.787288    0.799559    7.480866
     43          8           0       -7.640734   -3.889499    7.552916
     44          8           0       -4.546906    2.255889   10.434632
     45          8           0       -4.862063   -5.240856   10.532759
     46          8           0       -1.659359   -3.469953    5.240275
     47          8           0       -7.807124    0.254438    5.170892
     48          8           0       -8.023474   -0.181237   12.768604
     49          8           0       -1.356450   -2.789485   12.773424
     50         74           0       -1.262529   -0.539982    8.827881
     51         74           0       -8.160411   -2.488351    8.872292
     52         74           0       -5.967071    1.848515    9.065790
     53         74           0       -3.450474   -4.869413    9.178006
     54          8           0       -4.242953   -3.072828    6.086760
     55          8           0       -5.170654   -0.051816    6.035774
     56          8           0       -6.167036   -1.990079   11.908927
     57          8           0       -3.215346   -0.957717   11.915196
     58          8           0       -4.399080    1.591191    7.867792
     59          8           0       -5.013496   -4.649704    7.949306
     60          8           0       -2.365983    0.591882   10.061520
     61          8           0       -7.046694   -3.597476   10.122681
     62          8           0       -2.569692   -3.862842    7.870361
     63          8           0       -6.861544    0.788647    7.812624
     64          8           0       -7.847936   -1.158843   10.153069
     65          8           0       -1.573416   -1.844404   10.143556
     66          8           0       -3.322411   -1.134234    7.995691
     67          8           0       -6.098651   -1.938109    8.020260
     68          8           0       -5.188876   -0.143873    9.967844
     69          8           0       -4.208799   -2.863018   10.004104
     70         19           0       -3.247730   -6.066223    5.704487
     71         19           0       -0.201086    0.015971   12.311030
     72         19           0       -9.213318   -2.917796   12.364052
     73         23           0       -4.705585   -1.516076    8.994536
 ---------------------------------------------------------------------

 SCF Done:  E(UwB97XD) =  -7327.72436572     A.U. after   38 cycles

 Alpha  occ. eigenvalues --  -19.26419 -18.99538 -18.98468 -18.98435 -13.36354
 Alpha  occ. eigenvalues --  -13.36348 -13.36272 -10.69283 -10.69278 -10.69277
 Alpha  occ. eigenvalues --  -10.69277 -10.69271 -10.69271 -10.69202 -10.69196
 Alpha  occ. eigenvalues --  -10.69194 -10.33539 -10.32966 -10.31604 -10.30769
 Alpha  occ. eigenvalues --  -10.30734 -10.30724 -10.30373 -10.30288  -9.50814
 Alpha  occ. eigenvalues --   -7.25669  -7.25410  -7.25385  -3.21077  -3.21067
 Alpha  occ. eigenvalues --   -3.21062  -3.21053  -3.21039  -3.21030  -3.21023
 Alpha  occ. eigenvalues --   -3.21014  -3.20989  -3.20799  -3.20760  -3.20701
 Alpha  occ. eigenvalues --   -2.82698  -1.85600  -1.85553  -1.85539  -1.85507
 Alpha  occ. eigenvalues --   -1.85385  -1.85324  -1.85286  -1.85275  -1.85258
 Alpha  occ. eigenvalues --   -1.85245  -1.85231  -1.85154  -1.85134  -1.85080
 Alpha  occ. eigenvalues --   -1.85064  -1.84389  -1.84270  -1.84263  -1.84246
 Alpha  occ. eigenvalues --   -1.84214  -1.84207  -1.84111  -1.84083  -1.84076
 Alpha  occ. eigenvalues --   -1.84065  -1.84053  -1.84042  -1.83908  -1.83902
 Alpha  occ. eigenvalues --   -1.83880  -1.83874  -1.83798  -1.83793  -1.83776
 Alpha  occ. eigenvalues --   -1.83715  -1.83703  -1.83601  -1.83573  -1.83548
 Alpha  occ. eigenvalues --   -1.50073  -1.50069  -1.49996  -1.08972  -1.07343
 Alpha  occ. eigenvalues --   -1.07336  -1.07311  -1.06026  -1.05993  -1.05931
 Alpha  occ. eigenvalues --   -1.04719  -1.04554  -1.04549  -1.04523  -1.03995
 Alpha  occ. eigenvalues --   -1.03967  -1.03934  -1.03877  -1.03850  -1.03189
 Alpha  occ. eigenvalues --   -1.03147  -1.02484  -1.02475  -1.02450  -1.02358
 Alpha  occ. eigenvalues --   -1.02304  -1.02260  -1.02190  -1.02180  -1.02001
 Alpha  occ. eigenvalues --   -1.01867  -1.01845  -1.01749  -1.01724  -1.01654
 Alpha  occ. eigenvalues --   -1.01290  -1.01252  -1.00865  -1.00795  -1.00781
 Alpha  occ. eigenvalues --   -1.00765  -1.00691  -1.00682  -0.96035  -0.89260
 Alpha  occ. eigenvalues --   -0.85540  -0.85537  -0.85473  -0.85372  -0.85369
 Alpha  occ. eigenvalues --   -0.85367  -0.85362  -0.85300  -0.85284  -0.84243
 Alpha  occ. eigenvalues --   -0.82557  -0.79815  -0.71914  -0.69475  -0.64952
 Alpha  occ. eigenvalues --   -0.62110  -0.61569  -0.61505  -0.61491  -0.60502
 Alpha  occ. eigenvalues --   -0.59206  -0.59129  -0.58971  -0.58935  -0.58894
 Alpha  occ. eigenvalues --   -0.58856  -0.58827  -0.58764  -0.58714  -0.57996
 Alpha  occ. eigenvalues --   -0.57943  -0.57819  -0.57534  -0.56819  -0.56781
 Alpha  occ. eigenvalues --   -0.56739  -0.56699  -0.56409  -0.56300  -0.55564
 Alpha  occ. eigenvalues --   -0.55543  -0.55486  -0.54634  -0.54593  -0.54465
 Alpha  occ. eigenvalues --   -0.54341  -0.54197  -0.54099  -0.53933  -0.52969
 Alpha  occ. eigenvalues --   -0.52902  -0.52792  -0.52721  -0.52605  -0.51792
 Alpha  occ. eigenvalues --   -0.51671  -0.51622  -0.51571  -0.51512  -0.50888
 Alpha  occ. eigenvalues --   -0.50823  -0.50771  -0.50716  -0.50635  -0.50575
 Alpha  occ. eigenvalues --   -0.50274  -0.50272  -0.50195  -0.50187  -0.50049
 Alpha  occ. eigenvalues --   -0.49942  -0.49926  -0.49808  -0.49799  -0.49668
 Alpha  occ. eigenvalues --   -0.49493  -0.49431  -0.49231  -0.49171  -0.49111
 Alpha  occ. eigenvalues --   -0.48948  -0.48822  -0.48774  -0.48691  -0.47809
 Alpha  occ. eigenvalues --   -0.47771  -0.47217  -0.46737  -0.46409  -0.46364
 Alpha  occ. eigenvalues --   -0.46350  -0.46055  -0.45839  -0.45718  -0.45277
 Alpha  occ. eigenvalues --   -0.45246  -0.45239  -0.45027  -0.44994  -0.44977
 Alpha  occ. eigenvalues --   -0.44891  -0.44711  -0.44510  -0.44421  -0.44345
 Alpha  occ. eigenvalues --   -0.43865  -0.43104  -0.43053  -0.43030  -0.42924
 Alpha  occ. eigenvalues --   -0.42615  -0.42430  -0.42352  -0.41990  -0.41838
 Alpha  occ. eigenvalues --   -0.41831  -0.41756  -0.41231  -0.41195  -0.41012
 Alpha  occ. eigenvalues --   -0.40937  -0.40898  -0.40563  -0.40538  -0.40498
 Alpha  occ. eigenvalues --   -0.40440  -0.40333  -0.40303  -0.40270  -0.40017
 Alpha  occ. eigenvalues --   -0.39877  -0.39694  -0.39665  -0.39584  -0.39567
 Alpha  occ. eigenvalues --   -0.39388  -0.39354  -0.39068  -0.39045  -0.38921
 Alpha  occ. eigenvalues --   -0.38430  -0.38371  -0.38335  -0.38313  -0.37283
 Alpha  occ. eigenvalues --   -0.37233  -0.33854  -0.33735  -0.33416  -0.31620
 Alpha  occ. eigenvalues --   -0.30171
 Alpha virt. eigenvalues --   -0.08196  -0.06126  -0.05983  -0.04672  -0.04635
 Alpha virt. eigenvalues --   -0.04493  -0.02791  -0.01587  -0.01466  -0.01415
 Alpha virt. eigenvalues --   -0.00986  -0.00816  -0.00776  -0.00734  -0.00205

  Beta  occ. eigenvalues -- -197.16720-129.98955-129.98950-129.98885-101.60755
  Beta  occ. eigenvalues --  -22.48615 -19.28752 -19.28726 -19.28704 -19.28574
  Beta  occ. eigenvalues --  -19.28553 -19.28541 -19.28512 -19.28498 -19.28495
  Beta  occ. eigenvalues --  -19.28477 -19.28329 -19.28295 -19.27016 -19.27010
  Beta  occ. eigenvalues --  -19.26982 -19.26978 -19.26952 -19.26944 -19.26926
  Beta  occ. eigenvalues --  -19.26907 -19.26905 -19.26897 -19.26893 -19.26858
  Beta  occ. eigenvalues --  -19.26844 -19.26843 -19.26821 -19.26818 -19.26811
  Beta  occ. eigenvalues --  -19.26807 -19.26801 -19.26764 -19.26754 -19.26699
  Beta  occ. eigenvalues --  -19.26659 -19.26643 -19.26511 -19.26495 -19.26418
  Beta  occ. eigenvalues --  -19.26402 -18.99170 -18.96989 -18.96922 -13.36354
  Beta  occ. eigenvalues --  -13.36348 -13.36272 -10.69283 -10.69278 -10.69277
  Beta  occ. eigenvalues --  -10.69277 -10.69271 -10.69271 -10.69202 -10.69196
  Beta  occ. eigenvalues --  -10.69194 -10.33698 -10.33387 -10.31504 -10.30893
  Beta  occ. eigenvalues --  -10.30872 -10.30847 -10.30303 -10.30216  -9.51215
  Beta  occ. eigenvalues --   -7.26891  -7.25687  -7.25659  -3.21076  -3.21067
  Beta  occ. eigenvalues --   -3.21058  -3.21053  -3.21035  -3.21025  -3.21018
  Beta  occ. eigenvalues --   -3.21009  -3.20984  -3.20798  -3.20756  -3.20701
  Beta  occ. eigenvalues --   -2.78496  -1.85570  -1.85521  -1.85508  -1.85474
  Beta  occ. eigenvalues --   -1.85338  -1.85283  -1.85276  -1.85261  -1.85238
  Beta  occ. eigenvalues --   -1.85226  -1.85149  -1.85124  -1.84387  -1.84270
  Beta  occ. eigenvalues --   -1.84262  -1.84247  -1.84213  -1.84206  -1.84110
  Beta  occ. eigenvalues --   -1.84081  -1.84075  -1.84064  -1.84050  -1.84040
  Beta  occ. eigenvalues --   -1.83941  -1.83906  -1.83899  -1.83878  -1.83871
  Beta  occ. eigenvalues --   -1.83796  -1.83791  -1.83774  -1.83713  -1.83701
  Beta  occ. eigenvalues --   -1.83599  -1.83572  -1.83548  -1.79216  -1.79074
  Beta  occ. eigenvalues --   -1.50073  -1.50069  -1.49996  -1.08952  -1.07320
  Beta  occ. eigenvalues --   -1.07298  -1.07273  -1.06023  -1.05992  -1.05932
  Beta  occ. eigenvalues --   -1.04674  -1.04554  -1.04549  -1.04524  -1.03955
  Beta  occ. eigenvalues --   -1.03943  -1.03922  -1.03855  -1.03826  -1.03191
  Beta  occ. eigenvalues --   -1.03142  -1.02479  -1.02468  -1.02443  -1.02351
  Beta  occ. eigenvalues --   -1.02304  -1.02250  -1.02186  -1.02174  -1.01998
  Beta  occ. eigenvalues --   -1.01867  -1.01840  -1.01748  -1.01724  -1.01654
  Beta  occ. eigenvalues --   -1.01291  -1.01233  -1.00814  -1.00780  -1.00765
  Beta  occ. eigenvalues --   -1.00744  -1.00665  -1.00643  -0.96298  -0.90216
  Beta  occ. eigenvalues --   -0.85540  -0.85537  -0.85473  -0.85372  -0.85369
  Beta  occ. eigenvalues --   -0.85367  -0.85362  -0.85300  -0.85284  -0.84397
  Beta  occ. eigenvalues --   -0.83656  -0.81918  -0.72282  -0.69601  -0.65273
  Beta  occ. eigenvalues --   -0.62111  -0.61569  -0.61506  -0.61490  -0.60763
  Beta  occ. eigenvalues --   -0.59105  -0.58962  -0.58937  -0.58917  -0.58897
  Beta  occ. eigenvalues --   -0.58862  -0.58824  -0.58763  -0.58708  -0.57826
  Beta  occ. eigenvalues --   -0.57801  -0.57757  -0.57489  -0.56970  -0.56830
  Beta  occ. eigenvalues --   -0.56744  -0.56710  -0.56267  -0.56037  -0.55554
  Beta  occ. eigenvalues --   -0.55536  -0.55491  -0.54612  -0.54588  -0.54523
  Beta  occ. eigenvalues --   -0.54439  -0.54183  -0.54075  -0.53924  -0.52983
  Beta  occ. eigenvalues --   -0.52881  -0.52780  -0.52722  -0.52677  -0.51635
  Beta  occ. eigenvalues --   -0.51607  -0.51589  -0.51528  -0.51502  -0.50920
  Beta  occ. eigenvalues --   -0.50854  -0.50789  -0.50657  -0.50574  -0.50539
  Beta  occ. eigenvalues --   -0.50447  -0.50252  -0.50199  -0.50185  -0.50021
  Beta  occ. eigenvalues --   -0.49949  -0.49917  -0.49810  -0.49791  -0.49668
  Beta  occ. eigenvalues --   -0.49448  -0.49427  -0.49181  -0.49135  -0.49088
  Beta  occ. eigenvalues --   -0.48932  -0.48816  -0.48781  -0.48702  -0.48006
  Beta  occ. eigenvalues --   -0.47727  -0.47723  -0.46342  -0.46248  -0.46241
  Beta  occ. eigenvalues --   -0.45994  -0.45926  -0.45788  -0.45328  -0.45277
  Beta  occ. eigenvalues --   -0.45242  -0.45193  -0.45058  -0.44943  -0.44930
  Beta  occ. eigenvalues --   -0.44879  -0.44716  -0.44538  -0.44420  -0.44341
  Beta  occ. eigenvalues --   -0.43881  -0.43228  -0.43129  -0.42998  -0.42866
  Beta  occ. eigenvalues --   -0.42615  -0.42495  -0.42365  -0.42154  -0.42042
  Beta  occ. eigenvalues --   -0.41811  -0.41779  -0.41724  -0.41229  -0.41154
  Beta  occ. eigenvalues --   -0.41003  -0.40892  -0.40818  -0.40551  -0.40527
  Beta  occ. eigenvalues --   -0.40470  -0.40325  -0.40285  -0.40271  -0.39959
  Beta  occ. eigenvalues --   -0.39841  -0.39676  -0.39623  -0.39608  -0.39510
  Beta  occ. eigenvalues --   -0.39479  -0.39399  -0.39339  -0.39064  -0.39042
  Beta  occ. eigenvalues --   -0.38904  -0.38382  -0.38336  -0.38319  -0.37286
  Beta  occ. eigenvalues --   -0.37227  -0.35918  -0.34442  -0.34323  -0.33817
  Beta  occ. eigenvalues --   -0.29105
  Beta virt. eigenvalues --   -0.06127  -0.05983  -0.04672  -0.04634  -0.04493
  Beta virt. eigenvalues --   -0.01577  -0.01455  -0.01407  -0.00971  -0.00804
  Beta virt. eigenvalues --   -0.00767  -0.00725  -0.00711  -0.00120  -0.00027

 Mulliken charges and spin densities:
               1          2
     1  Cl  -0.412606  -0.498128
     2  C   -0.033341  -0.116124
     3  C    0.010738   0.098256
     4  C   -0.028551  -0.112276
     5  C   -0.031004   0.071228
     6  C    0.002903  -0.128685
     7  C   -0.048395   0.069334
     8  H    0.045133   0.004894
     9  H    0.048597   0.004767
    10  H    0.052791  -0.002584
    11  H    0.053598   0.005687
    12  H    0.051973  -0.002475
    13  C    0.005865  -0.366404
    14  C   -0.000046  -0.042836
    15  H    0.076288   0.016019
    16  H    0.106039   0.002006
    17  H    0.108201   0.001644
    18  O   -0.669182  -0.000717
    19  O   -0.667606  -0.000667
    20  O   -0.663338  -0.002138
    21  O   -0.669750  -0.000683
    22  W    1.712733   0.000304
    23  W    1.653705   0.000417
    24  W    1.665108   0.000031
    25  W    1.675731   0.000115
    26  W    1.665426   0.001768
    27  W    1.714621   0.001410
    28  W    1.620860   0.001828
    29  W    1.677682   0.001818
    30  O   -0.337707  -0.000566
    31  O   -0.385202  -0.000592
    32  O   -0.385900  -0.000627
    33  O   -0.383357  -0.000596
    34  O   -0.670608  -0.000470
    35  O   -0.678078  -0.000244
    36  O   -0.668708  -0.000303
    37  O   -0.671513  -0.000387
    38  O   -0.389178   0.001734
    39  O   -0.390408   0.001779
    40  O   -0.332967  -0.001469
    41  O   -0.387699   0.001711
    42  O   -0.676842  -0.000066
    43  O   -0.669252   0.000047
    44  O   -0.665591   0.000117
    45  O   -0.671512   0.000018
    46  O   -0.388960   0.001946
    47  O   -0.340898   0.001851
    48  O   -0.381561   0.001502
    49  O   -0.387472   0.001958
    50  W    1.663759   0.001864
    51  W    1.668459   0.001726
    52  W    1.676178   0.002564
    53  W    1.672937   0.001749
    54  O   -0.723708   0.000001
    55  O   -0.708219  -0.000051
    56  O   -0.725456   0.000040
    57  O   -0.721769  -0.000015
    58  O   -0.706298  -0.000169
    59  O   -0.726513   0.000025
    60  O   -0.723780   0.000091
    61  O   -0.722569   0.000079
    62  O   -0.723449  -0.000210
    63  O   -0.707700  -0.000037
    64  O   -0.723712  -0.000227
    65  O   -0.727033  -0.000233
    66  O   -0.896584   0.000221
    67  O   -0.897113   0.002116
    68  O   -0.893774   0.002027
    69  O   -0.902403   0.001861
    70  K    0.848117   0.000096
    71  K    0.847640   0.000113
    72  K    0.842361   0.000118
    73  V    1.149869   0.971096
 Sum of Mulliken charges =  -1.00000   0.00000

 Dipole moment (field-independent basis, Debye):
    X=             29.8284    Y=            -13.3814    Z=            -31.3571  Tot=             45.2997
 Quadrupole moment (field-independent basis, Debye-Ang):
   XX=           -792.9829   YY=           -698.3438   ZZ=           -797.0699
   XY=            130.1502   XZ=            196.8100   YZ=            -92.3041

 Normal termination of Gaussian 16 at Sat Jun  1 11:22:53 2024.
