 Gaussian 16, Revision C.01,
 Gaussian 16:  ES64L-G16RevC.01  3-Jul-2019

 ----------------------------------------------------------------------
 # def2svp wb97xd scrf=(smd,solvent=acetonitrile) g09default scf=(xqc,m
 axcycle=64) force guess=read nosymm
 ----------------------------------------------------------------------

 ----------
 Title Card
 ----------
 Symbolic Z-matrix:
 Charge = -1 Multiplicity = 1

                          Input orientation:
 ---------------------------------------------------------------------
 Center     Atomic      Atomic             Coordinates (Angstroms)
 Number     Number       Type             X           Y           Z
 ---------------------------------------------------------------------
      1         17           0       -9.916074    8.103139   10.523413
      2          6           0       -8.318676    4.235533   12.228091
      3          6           0       -9.092485    3.915931   11.097853
      4          6           0      -10.018995    2.862613   11.203320
      5          6           0      -10.195452    2.179980   12.402483
      6          6           0       -9.438939    2.527928   13.522434
      7          6           0       -8.491010    3.549032   13.425925
      8          1           0       -7.570804    5.028924   12.169165
      9          1           0      -10.603800    2.580112   10.322942
     10          1           0      -10.920511    1.364607   12.464137
     11          1           0       -9.574686    1.992884   14.464813
     12          1           0       -7.880517    3.811803   14.293628
     13          6           0       -8.975720    4.636594    9.828768
     14          6           0       -8.195136    5.705903    9.579207
     15          1           0       -9.608654    4.256042    9.019825
     16          1           0       -8.155147    6.135596    8.576486
     17          1           0       -7.513540    6.131244   10.318894
     18          8           0       -0.996815   -1.770879    7.459924
     19          8           0       -8.411821   -1.331617    7.461036
     20          8           0       -7.044576    1.347198   10.481917
     21          8           0       -2.331469   -4.365825   10.557048
     22         74           0       -3.415736    0.716066    6.482977
     23         74           0       -6.005783   -3.823408    6.574473
     24         74           0       -3.628070    0.903108   11.416765
     25         74           0       -5.772082   -3.861303   11.472423
     26         74           0       -2.456842   -2.564053    6.391666
     27         74           0       -6.944505   -0.537623    6.361668
     28         74           0       -6.825543   -0.247931   11.575031
     29         74           0       -2.563831   -2.705153   11.616426
     30          8           0       -3.177701    1.910029    5.313860
     31          8           0       -6.147074   -5.071604    5.430298
     32          8           0       -2.717444    1.755898   12.570739
     33          8           0       -6.674652   -4.677699   12.657214
     34          8           0       -2.678727   -0.885060    5.582364
     35          8           0       -6.716473   -2.270650    5.624641
     36          8           0       -5.321629    0.563839   12.364997
     37          8           0       -4.059204   -3.518201   12.407344
     38          8           0        0.296066    0.002230    9.271571
     39          8           0       -9.713709   -3.027801    9.321169
     40          8           0       -6.373428    3.420329    8.664292
     41          8           0       -2.981440   -6.465066    8.761382
     42          8           0       -1.797764    0.772303    7.475739
     43          8           0       -7.611460   -3.881004    7.551679
     44          8           0       -4.520072    2.217960   10.432859
     45          8           0       -4.868021   -5.217807   10.523763
     46          8           0       -1.620306   -3.496897    5.242583
     47          8           0       -7.837660    0.260090    5.171338
     48          8           0       -8.043196   -0.155353   12.753852
     49          8           0       -1.328379   -2.838546   12.775198
     50         74           0       -1.263212   -0.516791    8.838024
     51         74           0       -8.153645   -2.521883    8.874947
     52         74           0       -5.900757    1.850539    9.048842
     53         74           0       -3.478847   -4.891888    9.169790
     54          8           0       -4.229652   -3.096419    6.067548
     55          8           0       -5.168933   -0.042862    6.007053
     56          8           0       -6.178312   -1.995813   11.916487
     57          8           0       -3.178616   -0.960248   11.936173
     58          8           0       -4.372678    1.579930    7.845087
     59          8           0       -5.006814   -4.674563    7.923268
     60          8           0       -2.338819    0.593467   10.082086
     61          8           0       -7.062783   -3.610954   10.136856
     62          8           0       -2.577111   -3.879842    7.864625
     63          8           0       -6.827717    0.782977    7.808658
     64          8           0       -7.837002   -1.173114   10.146247
     65          8           0       -1.575839   -1.846135   10.141310
     66          8           0       -3.373863   -1.139601    8.005341
     67          8           0       -6.032661   -1.951715    8.035423
     68          8           0       -5.126086   -0.197162    9.951069
     69          8           0       -4.245722   -2.828636    9.978208
     70         19           0       -3.222723   -6.136977    5.650540
     71         19           0       -0.122357    0.052989   12.358489
     72         19           0       -9.287346   -2.902091   12.431207
     73         23           0       -4.697793   -1.525051    8.988978
 ---------------------------------------------------------------------

 SCF Done:  E(RwB97XD) =  -7327.70076839     A.U. after   11 cycles

 Alpha  occ. eigenvalues -- -197.29624-130.00188-130.00180-130.00100-101.47716
 Alpha  occ. eigenvalues --  -22.62732 -19.33732 -19.33715 -19.33707 -19.33679
 Alpha  occ. eigenvalues --  -19.30700 -19.30668 -19.30665 -19.30654 -19.30652
 Alpha  occ. eigenvalues --  -19.30640 -19.30629 -19.30597 -19.30509 -19.30334
 Alpha  occ. eigenvalues --  -19.30292 -19.30082 -19.29312 -19.29310 -19.29280
 Alpha  occ. eigenvalues --  -19.29269 -19.29268 -19.29260 -19.29244 -19.29189
 Alpha  occ. eigenvalues --  -19.29180 -19.29162 -19.29131 -19.29126 -19.29115
 Alpha  occ. eigenvalues --  -19.29108 -19.29094 -19.29090 -19.29079 -19.29056
 Alpha  occ. eigenvalues --  -19.29046 -19.28960 -19.28956 -19.28931 -19.28921
 Alpha  occ. eigenvalues --  -19.28787 -19.11691 -19.11683 -19.11674 -13.37593
 Alpha  occ. eigenvalues --  -13.37585 -13.37495 -10.70522 -10.70515 -10.70515
 Alpha  occ. eigenvalues --  -10.70514 -10.70507 -10.70506 -10.70426 -10.70419
 Alpha  occ. eigenvalues --  -10.70416 -10.29855 -10.29357 -10.29304 -10.29112
 Alpha  occ. eigenvalues --  -10.29030 -10.29005 -10.28220 -10.27753  -9.38170
 Alpha  occ. eigenvalues --   -7.12993  -7.12953  -7.12951  -3.23279  -3.23276
 Alpha  occ. eigenvalues --   -3.23260  -3.23258  -3.23256  -3.23248  -3.23198
 Alpha  occ. eigenvalues --   -3.23195  -3.23146  -3.22928  -3.22924  -3.22682
 Alpha  occ. eigenvalues --   -2.91935  -1.94300  -1.94273  -1.94263  -1.87697
 Alpha  occ. eigenvalues --   -1.87641  -1.87618  -1.87564  -1.87461  -1.87453
 Alpha  occ. eigenvalues --   -1.87439  -1.87411  -1.87367  -1.87242  -1.87205
 Alpha  occ. eigenvalues --   -1.87022  -1.86595  -1.86475  -1.86468  -1.86444
 Alpha  occ. eigenvalues --   -1.86424  -1.86384  -1.86309  -1.86297  -1.86275
 Alpha  occ. eigenvalues --   -1.86257  -1.86234  -1.86203  -1.86112  -1.86092
 Alpha  occ. eigenvalues --   -1.86089  -1.86062  -1.86015  -1.85966  -1.85945
 Alpha  occ. eigenvalues --   -1.85886  -1.85856  -1.85762  -1.85635  -1.85580
 Alpha  occ. eigenvalues --   -1.51273  -1.51266  -1.51179  -1.13100  -1.11343
 Alpha  occ. eigenvalues --   -1.11254  -1.11238  -1.08964  -1.08513  -1.08465
 Alpha  occ. eigenvalues --   -1.08265  -1.07563  -1.07508  -1.07487  -1.06882
 Alpha  occ. eigenvalues --   -1.06850  -1.06832  -1.06296  -1.06264  -1.05292
 Alpha  occ. eigenvalues --   -1.05284  -1.04960  -1.04948  -1.04929  -1.04167
 Alpha  occ. eigenvalues --   -1.04165  -1.04142  -1.03997  -1.03977  -1.03961
 Alpha  occ. eigenvalues --   -1.03921  -1.03871  -1.03850  -1.03731  -1.03690
 Alpha  occ. eigenvalues --   -1.03592  -1.03539  -1.03273  -1.03222  -1.03090
 Alpha  occ. eigenvalues --   -1.03073  -1.03014  -1.02918  -0.94424  -0.86733
 Alpha  occ. eigenvalues --   -0.86727  -0.86645  -0.86588  -0.86546  -0.86539
 Alpha  occ. eigenvalues --   -0.86537  -0.86536  -0.86458  -0.86436  -0.82847
 Alpha  occ. eigenvalues --   -0.79847  -0.70863  -0.69811  -0.68077  -0.64562
 Alpha  occ. eigenvalues --   -0.63920  -0.63881  -0.63871  -0.63355  -0.63321
 Alpha  occ. eigenvalues --   -0.63217  -0.63071  -0.62703  -0.62624  -0.62024
 Alpha  occ. eigenvalues --   -0.61610  -0.61592  -0.61503  -0.61199  -0.61178
 Alpha  occ. eigenvalues --   -0.61144  -0.60393  -0.59458  -0.59429  -0.59417
 Alpha  occ. eigenvalues --   -0.59397  -0.59362  -0.58710  -0.57972  -0.57945
 Alpha  occ. eigenvalues --   -0.57876  -0.57096  -0.57060  -0.57025  -0.56282
 Alpha  occ. eigenvalues --   -0.56235  -0.56074  -0.55679  -0.54834  -0.54771
 Alpha  occ. eigenvalues --   -0.54734  -0.54601  -0.54219  -0.54104  -0.54064
 Alpha  occ. eigenvalues --   -0.54021  -0.53948  -0.53208  -0.53168  -0.53045
 Alpha  occ. eigenvalues --   -0.52979  -0.52868  -0.52692  -0.52627  -0.52600
 Alpha  occ. eigenvalues --   -0.52556  -0.52527  -0.52456  -0.52433  -0.51569
 Alpha  occ. eigenvalues --   -0.51548  -0.51368  -0.51326  -0.51300  -0.51241
 Alpha  occ. eigenvalues --   -0.51168  -0.51147  -0.51027  -0.50717  -0.50540
 Alpha  occ. eigenvalues --   -0.50535  -0.50495  -0.49880  -0.49866  -0.49308
 Alpha  occ. eigenvalues --   -0.49259  -0.49235  -0.49177  -0.49137  -0.49039
 Alpha  occ. eigenvalues --   -0.48891  -0.48072  -0.48020  -0.47913  -0.47727
 Alpha  occ. eigenvalues --   -0.47341  -0.47281  -0.47226  -0.47004  -0.46947
 Alpha  occ. eigenvalues --   -0.46821  -0.46545  -0.46488  -0.46435  -0.46220
 Alpha  occ. eigenvalues --   -0.46157  -0.46102  -0.45634  -0.45074  -0.44893
 Alpha  occ. eigenvalues --   -0.44865  -0.44171  -0.44150  -0.44026  -0.43613
 Alpha  occ. eigenvalues --   -0.43283  -0.43228  -0.43102  -0.43081  -0.43041
 Alpha  occ. eigenvalues --   -0.42702  -0.42673  -0.42650  -0.42587  -0.42581
 Alpha  occ. eigenvalues --   -0.42495  -0.42450  -0.42435  -0.42271  -0.42255
 Alpha  occ. eigenvalues --   -0.42228  -0.42005  -0.41890  -0.41839  -0.41819
 Alpha  occ. eigenvalues --   -0.41242  -0.41169  -0.41136  -0.41025  -0.40532
 Alpha  occ. eigenvalues --   -0.40516  -0.40504  -0.40421  -0.39430  -0.39406
 Alpha  occ. eigenvalues --   -0.36937  -0.32563  -0.28869  -0.24592  -0.24568
 Alpha  occ. eigenvalues --   -0.23398
 Alpha virt. eigenvalues --   -0.09597  -0.09394  -0.08400  -0.08351  -0.06967
 Alpha virt. eigenvalues --   -0.06912  -0.06806  -0.04573  -0.04259  -0.04232
 Alpha virt. eigenvalues --   -0.03695  -0.03532  -0.03445  -0.03209  -0.03111

 Mulliken charges:
               1
     1  Cl  -0.930183
     2  C   -0.077527
     3  C    0.041578
     4  C   -0.075677
     5  C   -0.033251
     6  C   -0.031345
     7  C   -0.049780
     8  H    0.029242
     9  H    0.030584
    10  H    0.041186
    11  H    0.037303
    12  H    0.040079
    13  C   -0.099057
    14  C    0.014928
    15  H    0.021638
    16  H    0.041796
    17  H    0.034976
    18  O   -0.663564
    19  O   -0.660574
    20  O   -0.654553
    21  O   -0.661844
    22  W    1.735736
    23  W    1.671965
    24  W    1.681677
    25  W    1.692271
    26  W    1.676430
    27  W    1.728001
    28  W    1.621068
    29  W    1.684212
    30  O   -0.320739
    31  O   -0.365613
    32  O   -0.365843
    33  O   -0.362163
    34  O   -0.665174
    35  O   -0.670494
    36  O   -0.661670
    37  O   -0.663560
    38  O   -0.366511
    39  O   -0.365377
    40  O   -0.293997
    41  O   -0.365062
    42  O   -0.669947
    43  O   -0.663123
    44  O   -0.659740
    45  O   -0.665695
    46  O   -0.367161
    47  O   -0.321171
    48  O   -0.356064
    49  O   -0.363253
    50  W    1.672826
    51  W    1.676111
    52  W    1.681752
    53  W    1.683905
    54  O   -0.723690
    55  O   -0.707611
    56  O   -0.726196
    57  O   -0.721893
    58  O   -0.708021
    59  O   -0.726567
    60  O   -0.724955
    61  O   -0.721006
    62  O   -0.724708
    63  O   -0.709446
    64  O   -0.723504
    65  O   -0.726626
    66  O   -0.803122
    67  O   -0.801867
    68  O   -0.800105
    69  O   -0.809582
    70  K    0.866616
    71  K    0.867120
    72  K    0.863554
    73  V    1.192058
 Sum of Mulliken charges =  -1.00000

 Dipole moment (field-independent basis, Debye):
    X=             51.7629    Y=            -51.5176    Z=            -38.5040  Tot=             82.5592
 Quadrupole moment (field-independent basis, Debye-Ang):
   XX=          -1068.6002   YY=           -882.6065   ZZ=           -909.7931
   XY=            460.1405   XZ=            463.8313   YZ=           -480.5355

 Normal termination of Gaussian 16 at Sun Jun  2 05:30:40 2024.
