 Gaussian 16, Revision C.01,
 Gaussian 16:  ES64L-G16RevC.01  3-Jul-2019

 ----------------------------------------------------------------------
 # def2svp wb97xd scrf=(smd,solvent=acetonitrile) g09default scf=(xqc,m
 axcycle=64) force guess=read nosymm
 ----------------------------------------------------------------------

 ----------
 Title Card
 ----------
 Symbolic Z-matrix:
 Charge = -1 Multiplicity = 1

                          Input orientation:
 ---------------------------------------------------------------------
 Center     Atomic      Atomic             Coordinates (Angstroms)
 Number     Number       Type             X           Y           Z
 ---------------------------------------------------------------------
      1         17           0       -9.916074    8.103139   10.523413
      2          6           0       -8.318676    4.235533   12.228091
      3          6           0       -9.092485    3.915931   11.097853
      4          6           0      -10.018995    2.862613   11.203320
      5          6           0      -10.195452    2.179980   12.402483
      6          6           0       -9.438939    2.527928   13.522434
      7          6           0       -8.491010    3.549032   13.425925
      8          1           0       -7.570804    5.028924   12.169165
      9          1           0      -10.603800    2.580112   10.322942
     10          1           0      -10.920511    1.364607   12.464137
     11          1           0       -9.574686    1.992884   14.464813
     12          1           0       -7.880517    3.811803   14.293628
     13          6           0       -8.975720    4.636594    9.828768
     14          6           0       -8.195136    5.705903    9.579207
     15          1           0       -9.608654    4.256042    9.019825
     16          1           0       -8.155147    6.135596    8.576486
     17          1           0       -7.513540    6.131244   10.318894
     18          8           0       -0.996815   -1.770879    7.459924
     19          8           0       -8.411821   -1.331617    7.461036
     20          8           0       -7.044576    1.347198   10.481917
     21          8           0       -2.331469   -4.365825   10.557048
     22         74           0       -3.415736    0.716066    6.482977
     23         74           0       -6.005783   -3.823408    6.574473
     24         74           0       -3.628070    0.903108   11.416765
     25         74           0       -5.772082   -3.861303   11.472423
     26         74           0       -2.456842   -2.564053    6.391666
     27         74           0       -6.944505   -0.537623    6.361668
     28         74           0       -6.825543   -0.247931   11.575031
     29         74           0       -2.563831   -2.705153   11.616426
     30          8           0       -3.177701    1.910029    5.313860
     31          8           0       -6.147074   -5.071604    5.430298
     32          8           0       -2.717444    1.755898   12.570739
     33          8           0       -6.674652   -4.677699   12.657214
     34          8           0       -2.678727   -0.885060    5.582364
     35          8           0       -6.716473   -2.270650    5.624641
     36          8           0       -5.321629    0.563839   12.364997
     37          8           0       -4.059204   -3.518201   12.407344
     38          8           0        0.296066    0.002230    9.271571
     39          8           0       -9.713709   -3.027801    9.321169
     40          8           0       -6.373428    3.420329    8.664292
     41          8           0       -2.981440   -6.465066    8.761382
     42          8           0       -1.797764    0.772303    7.475739
     43          8           0       -7.611460   -3.881004    7.551679
     44          8           0       -4.520072    2.217960   10.432859
     45          8           0       -4.868021   -5.217807   10.523763
     46          8           0       -1.620306   -3.496897    5.242583
     47          8           0       -7.837660    0.260090    5.171338
     48          8           0       -8.043196   -0.155353   12.753852
     49          8           0       -1.328379   -2.838546   12.775198
     50         74           0       -1.263212   -0.516791    8.838024
     51         74           0       -8.153645   -2.521883    8.874947
     52         74           0       -5.900757    1.850539    9.048842
     53         74           0       -3.478847   -4.891888    9.169790
     54          8           0       -4.229652   -3.096419    6.067548
     55          8           0       -5.168933   -0.042862    6.007053
     56          8           0       -6.178312   -1.995813   11.916487
     57          8           0       -3.178616   -0.960248   11.936173
     58          8           0       -4.372678    1.579930    7.845087
     59          8           0       -5.006814   -4.674563    7.923268
     60          8           0       -2.338819    0.593467   10.082086
     61          8           0       -7.062783   -3.610954   10.136856
     62          8           0       -2.577111   -3.879842    7.864625
     63          8           0       -6.827717    0.782977    7.808658
     64          8           0       -7.837002   -1.173114   10.146247
     65          8           0       -1.575839   -1.846135   10.141310
     66          8           0       -3.373863   -1.139601    8.005341
     67          8           0       -6.032661   -1.951715    8.035423
     68          8           0       -5.126086   -0.197162    9.951069
     69          8           0       -4.245722   -2.828636    9.978208
     70         19           0       -3.222723   -6.136977    5.650540
     71         19           0       -0.122357    0.052989   12.358489
     72         19           0       -9.287346   -2.902091   12.431207
     73         23           0       -4.697793   -1.525051    8.988978
 ---------------------------------------------------------------------

 SCF Done:  E(UwB97XD) =  -7327.70092183     A.U. after   38 cycles

 Alpha  occ. eigenvalues --  -19.24786 -18.94367 -18.93277 -18.93244 -13.36632
 Alpha  occ. eigenvalues --  -13.36579 -13.36573 -10.69559 -10.69555 -10.69554
 Alpha  occ. eigenvalues --  -10.69506 -10.69502 -10.69501 -10.69501 -10.69497
 Alpha  occ. eigenvalues --  -10.69493 -10.32779 -10.32070 -10.31776 -10.30863
 Alpha  occ. eigenvalues --  -10.30857 -10.30841 -10.30472 -10.30399  -9.52883
 Alpha  occ. eigenvalues --   -7.27772  -7.27415  -7.27411  -3.21064  -3.21033
 Alpha  occ. eigenvalues --   -3.21031  -3.21027  -3.21003  -3.20985  -3.20977
 Alpha  occ. eigenvalues --   -3.20975  -3.20968  -3.20844  -3.20809  -3.20790
 Alpha  occ. eigenvalues --   -2.79016  -1.85307  -1.85275  -1.85252  -1.85228
 Alpha  occ. eigenvalues --   -1.85100  -1.85056  -1.85038  -1.85016  -1.85001
 Alpha  occ. eigenvalues --   -1.84995  -1.84975  -1.84907  -1.84357  -1.84245
 Alpha  occ. eigenvalues --   -1.84232  -1.84225  -1.84187  -1.84181  -1.84111
 Alpha  occ. eigenvalues --   -1.84097  -1.84075  -1.84065  -1.84044  -1.84030
 Alpha  occ. eigenvalues --   -1.83908  -1.83881  -1.83863  -1.83858  -1.83821
 Alpha  occ. eigenvalues --   -1.83790  -1.83770  -1.83766  -1.83751  -1.83651
 Alpha  occ. eigenvalues --   -1.83644  -1.83634  -1.82155  -1.81824  -1.81798
 Alpha  occ. eigenvalues --   -1.50326  -1.50275  -1.50270  -1.08620  -1.06989
 Alpha  occ. eigenvalues --   -1.06945  -1.06921  -1.06002  -1.05981  -1.05942
 Alpha  occ. eigenvalues --   -1.04563  -1.04545  -1.04540  -1.03965  -1.03951
 Alpha  occ. eigenvalues --   -1.03766  -1.03363  -1.03333  -1.03305  -1.03021
 Alpha  occ. eigenvalues --   -1.02989  -1.02262  -1.02248  -1.02217  -1.02050
 Alpha  occ. eigenvalues --   -1.01994  -1.01962  -1.01897  -1.01869  -1.01767
 Alpha  occ. eigenvalues --   -1.01730  -1.01719  -1.01608  -1.01567  -1.01538
 Alpha  occ. eigenvalues --   -1.01281  -1.00823  -1.00736  -1.00693  -1.00683
 Alpha  occ. eigenvalues --   -1.00066  -0.99994  -0.99941  -0.96071  -0.89131
 Alpha  occ. eigenvalues --   -0.85760  -0.85711  -0.85711  -0.85613  -0.85601
 Alpha  occ. eigenvalues --   -0.85564  -0.85560  -0.85559  -0.85539  -0.84169
 Alpha  occ. eigenvalues --   -0.82268  -0.81184  -0.71808  -0.69533  -0.64950
 Alpha  occ. eigenvalues --   -0.62292  -0.61666  -0.61640  -0.61607  -0.60503
 Alpha  occ. eigenvalues --   -0.58952  -0.58930  -0.58914  -0.58862  -0.58803
 Alpha  occ. eigenvalues --   -0.58763  -0.58739  -0.58695  -0.58537  -0.57402
 Alpha  occ. eigenvalues --   -0.57370  -0.57340  -0.57055  -0.56638  -0.56491
 Alpha  occ. eigenvalues --   -0.56446  -0.56406  -0.56041  -0.55889  -0.55364
 Alpha  occ. eigenvalues --   -0.55351  -0.55324  -0.54328  -0.54170  -0.54147
 Alpha  occ. eigenvalues --   -0.53950  -0.53708  -0.53661  -0.53637  -0.52680
 Alpha  occ. eigenvalues --   -0.52584  -0.52572  -0.52473  -0.52429  -0.51466
 Alpha  occ. eigenvalues --   -0.51456  -0.51450  -0.51370  -0.51304  -0.50668
 Alpha  occ. eigenvalues --   -0.50525  -0.50519  -0.50459  -0.50362  -0.50251
 Alpha  occ. eigenvalues --   -0.50214  -0.50053  -0.49996  -0.49984  -0.49716
 Alpha  occ. eigenvalues --   -0.49630  -0.49590  -0.49485  -0.49450  -0.49297
 Alpha  occ. eigenvalues --   -0.49265  -0.49201  -0.49114  -0.49075  -0.48996
 Alpha  occ. eigenvalues --   -0.48657  -0.48508  -0.48464  -0.48425  -0.47671
 Alpha  occ. eigenvalues --   -0.47639  -0.47124  -0.46479  -0.46043  -0.46012
 Alpha  occ. eigenvalues --   -0.45869  -0.45758  -0.45678  -0.45585  -0.45188
 Alpha  occ. eigenvalues --   -0.45145  -0.45130  -0.44800  -0.44601  -0.44485
 Alpha  occ. eigenvalues --   -0.44470  -0.44445  -0.44282  -0.44204  -0.44186
 Alpha  occ. eigenvalues --   -0.43474  -0.42989  -0.42560  -0.42510  -0.42451
 Alpha  occ. eigenvalues --   -0.42326  -0.42185  -0.42174  -0.42046  -0.41635
 Alpha  occ. eigenvalues --   -0.41619  -0.41570  -0.41016  -0.40974  -0.40784
 Alpha  occ. eigenvalues --   -0.40744  -0.40738  -0.40385  -0.40371  -0.40318
 Alpha  occ. eigenvalues --   -0.40198  -0.40171  -0.40142  -0.40115  -0.39847
 Alpha  occ. eigenvalues --   -0.39355  -0.39282  -0.39270  -0.39145  -0.39082
 Alpha  occ. eigenvalues --   -0.38922  -0.38895  -0.38835  -0.38794  -0.38716
 Alpha  occ. eigenvalues --   -0.38296  -0.38267  -0.38234  -0.37833  -0.37190
 Alpha  occ. eigenvalues --   -0.37179  -0.34936  -0.34922  -0.33564  -0.29848
 Alpha  occ. eigenvalues --   -0.25997
 Alpha virt. eigenvalues --   -0.12404  -0.06278  -0.06239  -0.04822  -0.04750
 Alpha virt. eigenvalues --   -0.04635  -0.01510  -0.01398  -0.01330  -0.01097
 Alpha virt. eigenvalues --   -0.00911  -0.00890  -0.00839  -0.00121  -0.00060

  Beta  occ. eigenvalues -- -197.11124-129.99221-129.99172-129.99169-101.62890
  Beta  occ. eigenvalues --  -22.43525 -19.28502 -19.28485 -19.28455 -19.28374
  Beta  occ. eigenvalues --  -19.28368 -19.28349 -19.28338 -19.28334 -19.28315
  Beta  occ. eigenvalues --  -19.28247 -19.28203 -19.28111 -19.26928 -19.26896
  Beta  occ. eigenvalues --  -19.26880 -19.26875 -19.26861 -19.26859 -19.26838
  Beta  occ. eigenvalues --  -19.26834 -19.26815 -19.26786 -19.26785 -19.26774
  Beta  occ. eigenvalues --  -19.26773 -19.26766 -19.26764 -19.26761 -19.26744
  Beta  occ. eigenvalues --  -19.26733 -19.26732 -19.26727 -19.26718 -19.26717
  Beta  occ. eigenvalues --  -19.26650 -19.26600 -19.24857 -19.24810 -19.24780
  Beta  occ. eigenvalues --  -19.24761 -18.94021 -18.91829 -18.91763 -13.36632
  Beta  occ. eigenvalues --  -13.36579 -13.36573 -10.69559 -10.69555 -10.69554
  Beta  occ. eigenvalues --  -10.69506 -10.69502 -10.69501 -10.69501 -10.69497
  Beta  occ. eigenvalues --  -10.69493 -10.33008 -10.32221 -10.31737 -10.30967
  Beta  occ. eigenvalues --  -10.30947 -10.30926 -10.30422 -10.30349  -9.53346
  Beta  occ. eigenvalues --   -7.29234  -7.27732  -7.27728  -3.21064  -3.21033
  Beta  occ. eigenvalues --   -3.21027  -3.21024  -3.20997  -3.20979  -3.20971
  Beta  occ. eigenvalues --   -3.20969  -3.20962  -3.20844  -3.20805  -3.20785
  Beta  occ. eigenvalues --   -2.74947  -1.85302  -1.85270  -1.85248  -1.85220
  Beta  occ. eigenvalues --   -1.85095  -1.85051  -1.85032  -1.85009  -1.84995
  Beta  occ. eigenvalues --   -1.84985  -1.84970  -1.84898  -1.84355  -1.84243
  Beta  occ. eigenvalues --   -1.84229  -1.84222  -1.84184  -1.84178  -1.84108
  Beta  occ. eigenvalues --   -1.84095  -1.84072  -1.84062  -1.84042  -1.84027
  Beta  occ. eigenvalues --   -1.83905  -1.83878  -1.83861  -1.83855  -1.83819
  Beta  occ. eigenvalues --   -1.83787  -1.83767  -1.83763  -1.83748  -1.83649
  Beta  occ. eigenvalues --   -1.83641  -1.83631  -1.80813  -1.76127  -1.75977
  Beta  occ. eigenvalues --   -1.50326  -1.50275  -1.50270  -1.08602  -1.06969
  Beta  occ. eigenvalues --   -1.06921  -1.06894  -1.06000  -1.05979  -1.05941
  Beta  occ. eigenvalues --   -1.04564  -1.04544  -1.04540  -1.03964  -1.03953
  Beta  occ. eigenvalues --   -1.03699  -1.03328  -1.03293  -1.03268  -1.03020
  Beta  occ. eigenvalues --   -1.02982  -1.02242  -1.02224  -1.02200  -1.02043
  Beta  occ. eigenvalues --   -1.01989  -1.01949  -1.01893  -1.01857  -1.01763
  Beta  occ. eigenvalues --   -1.01728  -1.01716  -1.01607  -1.01564  -1.01522
  Beta  occ. eigenvalues --   -1.01281  -1.00785  -1.00736  -1.00692  -1.00683
  Beta  occ. eigenvalues --   -0.99935  -0.99870  -0.99822  -0.96268  -0.89742
  Beta  occ. eigenvalues --   -0.85760  -0.85711  -0.85711  -0.85613  -0.85601
  Beta  occ. eigenvalues --   -0.85564  -0.85560  -0.85559  -0.85538  -0.84801
  Beta  occ. eigenvalues --   -0.84258  -0.82634  -0.72049  -0.69642  -0.65169
  Beta  occ. eigenvalues --   -0.62291  -0.61666  -0.61640  -0.61607  -0.60680
  Beta  occ. eigenvalues --   -0.58939  -0.58929  -0.58911  -0.58787  -0.58763
  Beta  occ. eigenvalues --   -0.58729  -0.58717  -0.58654  -0.58537  -0.57372
  Beta  occ. eigenvalues --   -0.57214  -0.57173  -0.57002  -0.56808  -0.56493
  Beta  occ. eigenvalues --   -0.56414  -0.56370  -0.55845  -0.55630  -0.55346
  Beta  occ. eigenvalues --   -0.55334  -0.55324  -0.54490  -0.54164  -0.54135
  Beta  occ. eigenvalues --   -0.53937  -0.53669  -0.53642  -0.53597  -0.52718
  Beta  occ. eigenvalues --   -0.52618  -0.52561  -0.52454  -0.52420  -0.51454
  Beta  occ. eigenvalues --   -0.51430  -0.51427  -0.51295  -0.51240  -0.50816
  Beta  occ. eigenvalues --   -0.50479  -0.50462  -0.50402  -0.50307  -0.50208
  Beta  occ. eigenvalues --   -0.50143  -0.50023  -0.49988  -0.49962  -0.49663
  Beta  occ. eigenvalues --   -0.49607  -0.49565  -0.49477  -0.49438  -0.49298
  Beta  occ. eigenvalues --   -0.49241  -0.49200  -0.49081  -0.49060  -0.48971
  Beta  occ. eigenvalues --   -0.48650  -0.48516  -0.48459  -0.48415  -0.47767
  Beta  occ. eigenvalues --   -0.47607  -0.47538  -0.45904  -0.45895  -0.45803
  Beta  occ. eigenvalues --   -0.45783  -0.45670  -0.45558  -0.45190  -0.45165
  Beta  occ. eigenvalues --   -0.45136  -0.45052  -0.44800  -0.44601  -0.44469
  Beta  occ. eigenvalues --   -0.44424  -0.44408  -0.44272  -0.44185  -0.44164
  Beta  occ. eigenvalues --   -0.43469  -0.43077  -0.42502  -0.42477  -0.42405
  Beta  occ. eigenvalues --   -0.42262  -0.42148  -0.42135  -0.42114  -0.41614
  Beta  occ. eigenvalues --   -0.41602  -0.41548  -0.41273  -0.41022  -0.40926
  Beta  occ. eigenvalues --   -0.40746  -0.40711  -0.40645  -0.40369  -0.40359
  Beta  occ. eigenvalues --   -0.40297  -0.40155  -0.40128  -0.40111  -0.39791
  Beta  occ. eigenvalues --   -0.39637  -0.39357  -0.39171  -0.39122  -0.39100
  Beta  occ. eigenvalues --   -0.38906  -0.38872  -0.38847  -0.38798  -0.38737
  Beta  occ. eigenvalues --   -0.38691  -0.38297  -0.38263  -0.38232  -0.37908
  Beta  occ. eigenvalues --   -0.37192  -0.37174  -0.35913  -0.35900  -0.33801
  Beta  occ. eigenvalues --   -0.30791
  Beta virt. eigenvalues --   -0.06276  -0.06239  -0.04822  -0.04749  -0.04635
  Beta virt. eigenvalues --   -0.01506  -0.01393  -0.01324  -0.01091  -0.00906
  Beta virt. eigenvalues --   -0.00886  -0.00835  -0.00112  -0.00047  -0.00011

 Mulliken charges and spin densities:
               1          2
     1  Cl  -0.338026  -0.634523
     2  C   -0.037248  -0.081644
     3  C    0.014685   0.044802
     4  C   -0.036048  -0.077814
     5  C   -0.030941   0.050107
     6  C    0.006026  -0.099913
     7  C   -0.048315   0.049953
     8  H    0.047443   0.003530
     9  H    0.049739   0.003355
    10  H    0.054491  -0.001763
    11  H    0.055299   0.004392
    12  H    0.053227  -0.001737
    13  C    0.000156  -0.205723
    14  C   -0.037198  -0.065286
    15  H    0.072330   0.008771
    16  H    0.094415   0.003775
    17  H    0.089683   0.002718
    18  O   -0.672444  -0.000574
    19  O   -0.669520  -0.000508
    20  O   -0.665804  -0.001782
    21  O   -0.670964  -0.000529
    22  W    1.719285   0.000363
    23  W    1.657842   0.000502
    24  W    1.669463   0.000195
    25  W    1.678581   0.000201
    26  W    1.662916   0.002701
    27  W    1.710543   0.002470
    28  W    1.612761   0.003249
    29  W    1.670179   0.002852
    30  O   -0.350542  -0.000541
    31  O   -0.393995  -0.000562
    32  O   -0.394169  -0.000612
    33  O   -0.390870  -0.000559
    34  O   -0.673627  -0.000314
    35  O   -0.677968  -0.000076
    36  O   -0.670651  -0.000142
    37  O   -0.672519  -0.000240
    38  O   -0.396235   0.001999
    39  O   -0.395335   0.002017
    40  O   -0.339144  -0.000694
    41  O   -0.395072   0.001999
    42  O   -0.677717   0.000094
    43  O   -0.671805   0.000178
    44  O   -0.668473   0.000310
    45  O   -0.674141   0.000118
    46  O   -0.397143   0.002337
    47  O   -0.352871   0.002245
    48  O   -0.388896   0.001836
    49  O   -0.393422   0.002410
    50  W    1.658790   0.002666
    51  W    1.661944   0.002558
    52  W    1.676183   0.003686
    53  W    1.669523   0.002483
    54  O   -0.721761   0.000093
    55  O   -0.706229   0.000004
    56  O   -0.722919   0.000160
    57  O   -0.720306   0.000052
    58  O   -0.705446   0.000002
    59  O   -0.723834   0.000142
    60  O   -0.722505   0.000195
    61  O   -0.718813   0.000189
    62  O   -0.723138  -0.000169
    63  O   -0.707919  -0.000018
    64  O   -0.722560  -0.000190
    65  O   -0.724516  -0.000204
    66  O   -0.885784   0.004954
    67  O   -0.885217   0.007111
    68  O   -0.883538   0.006993
    69  O   -0.889684   0.006491
    70  K    0.853177   0.000184
    71  K    0.853934   0.000203
    72  K    0.850024   0.000222
    73  V    1.202630   0.938250
 Sum of Mulliken charges =  -1.00000   0.00000

 Dipole moment (field-independent basis, Debye):
    X=             29.1134    Y=            -13.7756    Z=            -30.5725  Tot=             44.4076
 Quadrupole moment (field-independent basis, Debye-Ang):
   XX=           -775.0572   YY=           -702.5508   ZZ=           -779.0547
   XY=            131.4150   XZ=            184.2394   YZ=            -93.9426

 Normal termination of Gaussian 16 at Sun Jun  2 05:20:04 2024.
