 Gaussian 16, Revision C.01,
 Gaussian 16:  ES64L-G16RevC.01  3-Jul-2019

 ----------------------------------------------------------------------
 # def2svp wb97xd scrf=(smd,solvent=acetonitrile) g09default scf=(xqc,m
 axcycle=64) force guess=read nosymm
 ----------------------------------------------------------------------

 ----------
 Title Card
 ----------
 Symbolic Z-matrix:
 Charge = -1 Multiplicity = 1

                          Input orientation:
 ---------------------------------------------------------------------
 Center     Atomic      Atomic             Coordinates (Angstroms)
 Number     Number       Type             X           Y           Z
 ---------------------------------------------------------------------
      1         17           0       -9.900970    8.126485   10.529448
      2          6           0       -8.320128    4.235034   12.227191
      3          6           0       -9.095761    3.916271   11.098109
      4          6           0      -10.020995    2.861407   11.204014
      5          6           0      -10.196877    2.179627   12.404128
      6          6           0       -9.440950    2.529513   13.523913
      7          6           0       -8.491832    3.549508   13.425650
      8          1           0       -7.570770    5.026985   12.166405
      9          1           0      -10.604915    2.577240   10.324009
     10          1           0      -10.919588    1.362368   12.465781
     11          1           0       -9.576280    1.995128   14.466713
     12          1           0       -7.878633    3.810784   14.291874
     13          6           0       -8.982709    4.639101    9.829926
     14          6           0       -8.210125    5.714636    9.580974
     15          1           0       -9.612578    4.254991    9.020028
     16          1           0       -8.170483    6.141378    8.576913
     17          1           0       -7.533828    6.147489   10.321180
     18          8           0       -0.994833   -1.772909    7.460814
     19          8           0       -8.411210   -1.332179    7.461095
     20          8           0       -7.043077    1.347204   10.480563
     21          8           0       -2.331607   -4.367945   10.556129
     22         74           0       -3.414890    0.712479    6.481625
     23         74           0       -6.004597   -3.822677    6.572777
     24         74           0       -3.627107    0.900326   11.417827
     25         74           0       -5.770908   -3.860461   11.472752
     26         74           0       -2.454139   -2.567158    6.392869
     27         74           0       -6.944972   -0.537073    6.363084
     28         74           0       -6.825648   -0.247705   11.572823
     29         74           0       -2.561594   -2.707164   11.614595
     30          8           0       -3.176125    1.905679    5.311708
     31          8           0       -6.145679   -5.070702    5.429281
     32          8           0       -2.716114    1.752625   12.571912
     33          8           0       -6.674116   -4.675780   12.657800
     34          8           0       -2.676269   -0.888211    5.582161
     35          8           0       -6.715712   -2.270241    5.624242
     36          8           0       -5.321324    0.562815   12.364526
     37          8           0       -4.058083   -3.518730   12.406515
     38          8           0        0.296781    0.002049    9.272900
     39          8           0       -9.712891   -3.029263    9.321557
     40          8           0       -6.370987    3.421571    8.666732
     41          8           0       -2.983695   -6.467512    8.761392
     42          8           0       -1.796438    0.770739    7.475539
     43          8           0       -7.610522   -3.881671    7.551006
     44          8           0       -4.517608    2.216812   10.432940
     45          8           0       -4.869160   -5.218676   10.523338
     46          8           0       -1.618307   -3.502016    5.244785
     47          8           0       -7.837571    0.260895    5.173025
     48          8           0       -8.044445   -0.155468   12.751182
     49          8           0       -1.325783   -2.840888   12.773142
     50         74           0       -1.262332   -0.516968    8.837628
     51         74           0       -8.152444   -2.523833    8.874639
     52         74           0       -5.896854    1.850905    9.049011
     53         74           0       -3.480441   -4.894155    9.169462
     54          8           0       -4.227762   -3.097574    6.067387
     55          8           0       -5.167991   -0.044527    6.007292
     56          8           0       -6.177572   -1.995328   11.915227
     57          8           0       -3.176946   -0.962102   11.936069
     58          8           0       -4.370795    1.579318    7.843627
     59          8           0       -5.006550   -4.674555    7.922693
     60          8           0       -2.338044    0.591729   10.082257
     61          8           0       -7.061767   -3.610892   10.136359
     62          8           0       -2.576484   -3.882020    7.865101
     63          8           0       -6.825505    0.783244    7.808816
     64          8           0       -7.835852   -1.173309   10.144606
     65          8           0       -1.575410   -1.847723   10.140263
     66          8           0       -3.372184   -1.141305    8.004403
     67          8           0       -6.032245   -1.952150    8.034981
     68          8           0       -5.124694   -0.197486    9.950595
     69          8           0       -4.244727   -2.829735    9.977696
     70         19           0       -3.221374   -6.137882    5.649315
     71         19           0       -0.119597    0.054079   12.358337
     72         19           0       -9.288516   -2.897118   12.432766
     73         23           0       -4.696646   -1.525732    8.988460
 ---------------------------------------------------------------------

 SCF Done:  E(RwB97XD) =  -7327.70086792     A.U. after   13 cycles

 Alpha  occ. eigenvalues -- -197.29653-130.00189-130.00179-130.00097-101.47746
 Alpha  occ. eigenvalues --  -22.62758 -19.33740 -19.33724 -19.33711 -19.33693
 Alpha  occ. eigenvalues --  -19.30711 -19.30668 -19.30666 -19.30652 -19.30649
 Alpha  occ. eigenvalues --  -19.30641 -19.30635 -19.30590 -19.30508 -19.30338
 Alpha  occ. eigenvalues --  -19.30302 -19.30082 -19.29310 -19.29308 -19.29276
 Alpha  occ. eigenvalues --  -19.29270 -19.29266 -19.29261 -19.29239 -19.29185
 Alpha  occ. eigenvalues --  -19.29179 -19.29160 -19.29130 -19.29130 -19.29117
 Alpha  occ. eigenvalues --  -19.29111 -19.29089 -19.29087 -19.29080 -19.29054
 Alpha  occ. eigenvalues --  -19.29049 -19.28962 -19.28957 -19.28931 -19.28918
 Alpha  occ. eigenvalues --  -19.28798 -19.11718 -19.11709 -19.11700 -13.37595
 Alpha  occ. eigenvalues --  -13.37584 -13.37493 -10.70524 -10.70517 -10.70516
 Alpha  occ. eigenvalues --  -10.70513 -10.70506 -10.70505 -10.70423 -10.70416
 Alpha  occ. eigenvalues --  -10.70413 -10.29866 -10.29362 -10.29311 -10.29119
 Alpha  occ. eigenvalues --  -10.29040 -10.29009 -10.28234 -10.27772  -9.38200
 Alpha  occ. eigenvalues --   -7.13023  -7.12983  -7.12981  -3.23281  -3.23278
 Alpha  occ. eigenvalues --   -3.23263  -3.23260  -3.23258  -3.23250  -3.23207
 Alpha  occ. eigenvalues --   -3.23197  -3.23153  -3.22935  -3.22930  -3.22694
 Alpha  occ. eigenvalues --   -2.91952  -1.94314  -1.94287  -1.94278  -1.87698
 Alpha  occ. eigenvalues --   -1.87642  -1.87623  -1.87570  -1.87462  -1.87454
 Alpha  occ. eigenvalues --   -1.87439  -1.87412  -1.87370  -1.87247  -1.87213
 Alpha  occ. eigenvalues --   -1.87023  -1.86596  -1.86477  -1.86470  -1.86446
 Alpha  occ. eigenvalues --   -1.86426  -1.86389  -1.86312  -1.86300  -1.86278
 Alpha  occ. eigenvalues --   -1.86259  -1.86240  -1.86208  -1.86114  -1.86095
 Alpha  occ. eigenvalues --   -1.86093  -1.86065  -1.86018  -1.85971  -1.85949
 Alpha  occ. eigenvalues --   -1.85890  -1.85861  -1.85766  -1.85644  -1.85591
 Alpha  occ. eigenvalues --   -1.51274  -1.51266  -1.51177  -1.13106  -1.11349
 Alpha  occ. eigenvalues --   -1.11264  -1.11245  -1.08967  -1.08516  -1.08469
 Alpha  occ. eigenvalues --   -1.08266  -1.07565  -1.07510  -1.07493  -1.06884
 Alpha  occ. eigenvalues --   -1.06852  -1.06836  -1.06299  -1.06270  -1.05292
 Alpha  occ. eigenvalues --   -1.05283  -1.04962  -1.04950  -1.04933  -1.04167
 Alpha  occ. eigenvalues --   -1.04165  -1.04143  -1.04002  -1.03978  -1.03961
 Alpha  occ. eigenvalues --   -1.03923  -1.03872  -1.03850  -1.03733  -1.03688
 Alpha  occ. eigenvalues --   -1.03591  -1.03539  -1.03273  -1.03232  -1.03087
 Alpha  occ. eigenvalues --   -1.03071  -1.03015  -1.02918  -0.94424  -0.86734
 Alpha  occ. eigenvalues --   -0.86727  -0.86642  -0.86592  -0.86548  -0.86538
 Alpha  occ. eigenvalues --   -0.86537  -0.86536  -0.86456  -0.86432  -0.82847
 Alpha  occ. eigenvalues --   -0.79855  -0.70892  -0.69810  -0.68086  -0.64566
 Alpha  occ. eigenvalues --   -0.63923  -0.63887  -0.63876  -0.63359  -0.63326
 Alpha  occ. eigenvalues --   -0.63219  -0.63071  -0.62708  -0.62626  -0.62032
 Alpha  occ. eigenvalues --   -0.61614  -0.61597  -0.61508  -0.61203  -0.61181
 Alpha  occ. eigenvalues --   -0.61148  -0.60395  -0.59465  -0.59433  -0.59421
 Alpha  occ. eigenvalues --   -0.59403  -0.59367  -0.58709  -0.57972  -0.57947
 Alpha  occ. eigenvalues --   -0.57877  -0.57100  -0.57064  -0.57030  -0.56285
 Alpha  occ. eigenvalues --   -0.56241  -0.56076  -0.55679  -0.54837  -0.54772
 Alpha  occ. eigenvalues --   -0.54734  -0.54601  -0.54220  -0.54105  -0.54064
 Alpha  occ. eigenvalues --   -0.54020  -0.53948  -0.53207  -0.53167  -0.53043
 Alpha  occ. eigenvalues --   -0.52979  -0.52868  -0.52691  -0.52628  -0.52604
 Alpha  occ. eigenvalues --   -0.52561  -0.52530  -0.52459  -0.52436  -0.51570
 Alpha  occ. eigenvalues --   -0.51546  -0.51367  -0.51326  -0.51298  -0.51241
 Alpha  occ. eigenvalues --   -0.51169  -0.51148  -0.51029  -0.50715  -0.50535
 Alpha  occ. eigenvalues --   -0.50533  -0.50496  -0.49878  -0.49863  -0.49312
 Alpha  occ. eigenvalues --   -0.49262  -0.49235  -0.49180  -0.49139  -0.49038
 Alpha  occ. eigenvalues --   -0.48891  -0.48074  -0.48020  -0.47915  -0.47733
 Alpha  occ. eigenvalues --   -0.47344  -0.47280  -0.47225  -0.47005  -0.46945
 Alpha  occ. eigenvalues --   -0.46821  -0.46546  -0.46483  -0.46439  -0.46222
 Alpha  occ. eigenvalues --   -0.46157  -0.46103  -0.45636  -0.45075  -0.44895
 Alpha  occ. eigenvalues --   -0.44865  -0.44172  -0.44150  -0.44029  -0.43617
 Alpha  occ. eigenvalues --   -0.43283  -0.43226  -0.43103  -0.43080  -0.43041
 Alpha  occ. eigenvalues --   -0.42701  -0.42671  -0.42649  -0.42586  -0.42582
 Alpha  occ. eigenvalues --   -0.42496  -0.42448  -0.42434  -0.42271  -0.42255
 Alpha  occ. eigenvalues --   -0.42228  -0.42004  -0.41890  -0.41837  -0.41819
 Alpha  occ. eigenvalues --   -0.41243  -0.41164  -0.41133  -0.41020  -0.40531
 Alpha  occ. eigenvalues --   -0.40513  -0.40503  -0.40426  -0.39431  -0.39407
 Alpha  occ. eigenvalues --   -0.36950  -0.32563  -0.28887  -0.24614  -0.24592
 Alpha  occ. eigenvalues --   -0.23429
 Alpha virt. eigenvalues --   -0.09620  -0.09414  -0.08414  -0.08366  -0.06978
 Alpha virt. eigenvalues --   -0.06928  -0.06817  -0.04596  -0.04276  -0.04250
 Alpha virt. eigenvalues --   -0.03699  -0.03534  -0.03449  -0.03216  -0.03121

 Mulliken charges:
               1
     1  Cl  -0.929143
     2  C   -0.077433
     3  C    0.041989
     4  C   -0.075533
     5  C   -0.033258
     6  C   -0.031419
     7  C   -0.049758
     8  H    0.029469
     9  H    0.030541
    10  H    0.041244
    11  H    0.037374
    12  H    0.040182
    13  C   -0.101063
    14  C    0.014713
    15  H    0.022023
    16  H    0.042058
    17  H    0.034348
    18  O   -0.663665
    19  O   -0.660856
    20  O   -0.654502
    21  O   -0.662040
    22  W    1.736106
    23  W    1.672514
    24  W    1.682235
    25  W    1.692880
    26  W    1.676710
    27  W    1.728347
    28  W    1.621168
    29  W    1.684639
    30  O   -0.320725
    31  O   -0.365120
    32  O   -0.365848
    33  O   -0.362018
    34  O   -0.665404
    35  O   -0.670704
    36  O   -0.661804
    37  O   -0.663797
    38  O   -0.366857
    39  O   -0.365652
    40  O   -0.294697
    41  O   -0.364931
    42  O   -0.670017
    43  O   -0.663332
    44  O   -0.660027
    45  O   -0.665781
    46  O   -0.367440
    47  O   -0.320823
    48  O   -0.356781
    49  O   -0.363215
    50  W    1.673231
    51  W    1.676615
    52  W    1.682582
    53  W    1.684225
    54  O   -0.723834
    55  O   -0.707887
    56  O   -0.726222
    57  O   -0.722053
    58  O   -0.708151
    59  O   -0.726787
    60  O   -0.725040
    61  O   -0.721113
    62  O   -0.724839
    63  O   -0.709612
    64  O   -0.723586
    65  O   -0.726700
    66  O   -0.803367
    67  O   -0.801878
    68  O   -0.800268
    69  O   -0.809464
    70  K    0.866476
    71  K    0.867063
    72  K    0.863477
    73  V    1.192236
 Sum of Mulliken charges =  -1.00000

 Dipole moment (field-independent basis, Debye):
    X=             51.7036    Y=            -51.6093    Z=            -38.5308  Tot=             82.5918
 Quadrupole moment (field-independent basis, Debye-Ang):
   XX=          -1067.2495   YY=           -884.2385   ZZ=           -910.2008
   XY=            460.4807   XZ=            463.4932   YZ=           -481.6110

 Normal termination of Gaussian 16 at Sun Jun  2 06:10:27 2024.
