 Gaussian 16, Revision C.01,
 Gaussian 16:  ES64L-G16RevC.01  3-Jul-2019

 ----------------------------------------------------------------------
 # def2svp wb97xd scrf=(smd,solvent=acetonitrile) g09default scf=(xqc,m
 axcycle=64) force guess=read nosymm
 ----------------------------------------------------------------------

 ----------
 Title Card
 ----------
 Symbolic Z-matrix:
 Charge = -1 Multiplicity = 1

                          Input orientation:
 ---------------------------------------------------------------------
 Center     Atomic      Atomic             Coordinates (Angstroms)
 Number     Number       Type             X           Y           Z
 ---------------------------------------------------------------------
      1         17           0       -9.900970    8.126485   10.529448
      2          6           0       -8.320128    4.235034   12.227191
      3          6           0       -9.095761    3.916271   11.098109
      4          6           0      -10.020995    2.861407   11.204014
      5          6           0      -10.196877    2.179627   12.404128
      6          6           0       -9.440950    2.529513   13.523913
      7          6           0       -8.491832    3.549508   13.425650
      8          1           0       -7.570770    5.026985   12.166405
      9          1           0      -10.604915    2.577240   10.324009
     10          1           0      -10.919588    1.362368   12.465781
     11          1           0       -9.576280    1.995128   14.466713
     12          1           0       -7.878633    3.810784   14.291874
     13          6           0       -8.982709    4.639101    9.829926
     14          6           0       -8.210125    5.714636    9.580974
     15          1           0       -9.612578    4.254991    9.020028
     16          1           0       -8.170483    6.141378    8.576913
     17          1           0       -7.533828    6.147489   10.321180
     18          8           0       -0.994833   -1.772909    7.460814
     19          8           0       -8.411210   -1.332179    7.461095
     20          8           0       -7.043077    1.347204   10.480563
     21          8           0       -2.331607   -4.367945   10.556129
     22         74           0       -3.414890    0.712479    6.481625
     23         74           0       -6.004597   -3.822677    6.572777
     24         74           0       -3.627107    0.900326   11.417827
     25         74           0       -5.770908   -3.860461   11.472752
     26         74           0       -2.454139   -2.567158    6.392869
     27         74           0       -6.944972   -0.537073    6.363084
     28         74           0       -6.825648   -0.247705   11.572823
     29         74           0       -2.561594   -2.707164   11.614595
     30          8           0       -3.176125    1.905679    5.311708
     31          8           0       -6.145679   -5.070702    5.429281
     32          8           0       -2.716114    1.752625   12.571912
     33          8           0       -6.674116   -4.675780   12.657800
     34          8           0       -2.676269   -0.888211    5.582161
     35          8           0       -6.715712   -2.270241    5.624242
     36          8           0       -5.321324    0.562815   12.364526
     37          8           0       -4.058083   -3.518730   12.406515
     38          8           0        0.296781    0.002049    9.272900
     39          8           0       -9.712891   -3.029263    9.321557
     40          8           0       -6.370987    3.421571    8.666732
     41          8           0       -2.983695   -6.467512    8.761392
     42          8           0       -1.796438    0.770739    7.475539
     43          8           0       -7.610522   -3.881671    7.551006
     44          8           0       -4.517608    2.216812   10.432940
     45          8           0       -4.869160   -5.218676   10.523338
     46          8           0       -1.618307   -3.502016    5.244785
     47          8           0       -7.837571    0.260895    5.173025
     48          8           0       -8.044445   -0.155468   12.751182
     49          8           0       -1.325783   -2.840888   12.773142
     50         74           0       -1.262332   -0.516968    8.837628
     51         74           0       -8.152444   -2.523833    8.874639
     52         74           0       -5.896854    1.850905    9.049011
     53         74           0       -3.480441   -4.894155    9.169462
     54          8           0       -4.227762   -3.097574    6.067387
     55          8           0       -5.167991   -0.044527    6.007292
     56          8           0       -6.177572   -1.995328   11.915227
     57          8           0       -3.176946   -0.962102   11.936069
     58          8           0       -4.370795    1.579318    7.843627
     59          8           0       -5.006550   -4.674555    7.922693
     60          8           0       -2.338044    0.591729   10.082257
     61          8           0       -7.061767   -3.610892   10.136359
     62          8           0       -2.576484   -3.882020    7.865101
     63          8           0       -6.825505    0.783244    7.808816
     64          8           0       -7.835852   -1.173309   10.144606
     65          8           0       -1.575410   -1.847723   10.140263
     66          8           0       -3.372184   -1.141305    8.004403
     67          8           0       -6.032245   -1.952150    8.034981
     68          8           0       -5.124694   -0.197486    9.950595
     69          8           0       -4.244727   -2.829735    9.977696
     70         19           0       -3.221374   -6.137882    5.649315
     71         19           0       -0.119597    0.054079   12.358337
     72         19           0       -9.288516   -2.897118   12.432766
     73         23           0       -4.696646   -1.525732    8.988460
 ---------------------------------------------------------------------

 SCF Done:  E(UwB97XD) =  -7327.70096261     A.U. after   41 cycles

 Alpha  occ. eigenvalues --  -19.24788 -18.94400 -18.93311 -18.93276 -13.36635
 Alpha  occ. eigenvalues --  -13.36578 -13.36570 -10.69561 -10.69557 -10.69556
 Alpha  occ. eigenvalues --  -10.69505 -10.69501 -10.69500 -10.69498 -10.69494
 Alpha  occ. eigenvalues --  -10.69490 -10.32783 -10.32060 -10.31788 -10.30870
 Alpha  occ. eigenvalues --  -10.30863 -10.30852 -10.30478 -10.30407  -9.52915
 Alpha  occ. eigenvalues --   -7.27805  -7.27446  -7.27442  -3.21072  -3.21035
 Alpha  occ. eigenvalues --   -3.21035  -3.21029  -3.21005  -3.20988  -3.20978
 Alpha  occ. eigenvalues --   -3.20976  -3.20969  -3.20849  -3.20815  -3.20795
 Alpha  occ. eigenvalues --   -2.79038  -1.85309  -1.85276  -1.85257  -1.85229
 Alpha  occ. eigenvalues --   -1.85102  -1.85056  -1.85038  -1.85015  -1.85001
 Alpha  occ. eigenvalues --   -1.84994  -1.84973  -1.84914  -1.84360  -1.84248
 Alpha  occ. eigenvalues --   -1.84233  -1.84228  -1.84189  -1.84182  -1.84115
 Alpha  occ. eigenvalues --   -1.84100  -1.84078  -1.84067  -1.84047  -1.84032
 Alpha  occ. eigenvalues --   -1.83912  -1.83883  -1.83864  -1.83860  -1.83824
 Alpha  occ. eigenvalues --   -1.83792  -1.83772  -1.83769  -1.83754  -1.83656
 Alpha  occ. eigenvalues --   -1.83646  -1.83637  -1.82174  -1.81843  -1.81816
 Alpha  occ. eigenvalues --   -1.50328  -1.50274  -1.50268  -1.08622  -1.06992
 Alpha  occ. eigenvalues --   -1.06946  -1.06921  -1.06005  -1.05983  -1.05943
 Alpha  occ. eigenvalues --   -1.04566  -1.04544  -1.04540  -1.03967  -1.03955
 Alpha  occ. eigenvalues --   -1.03771  -1.03366  -1.03336  -1.03309  -1.03020
 Alpha  occ. eigenvalues --   -1.02987  -1.02265  -1.02248  -1.02216  -1.02050
 Alpha  occ. eigenvalues --   -1.01994  -1.01959  -1.01895  -1.01867  -1.01767
 Alpha  occ. eigenvalues --   -1.01730  -1.01719  -1.01605  -1.01568  -1.01542
 Alpha  occ. eigenvalues --   -1.01280  -1.00823  -1.00734  -1.00691  -1.00682
 Alpha  occ. eigenvalues --   -1.00069  -1.00000  -0.99944  -0.96070  -0.89127
 Alpha  occ. eigenvalues --   -0.85762  -0.85710  -0.85709  -0.85615  -0.85603
 Alpha  occ. eigenvalues --   -0.85562  -0.85559  -0.85558  -0.85535  -0.84169
 Alpha  occ. eigenvalues --   -0.82276  -0.81206  -0.71807  -0.69540  -0.64950
 Alpha  occ. eigenvalues --   -0.62295  -0.61668  -0.61644  -0.61612  -0.60501
 Alpha  occ. eigenvalues --   -0.58954  -0.58931  -0.58915  -0.58861  -0.58803
 Alpha  occ. eigenvalues --   -0.58768  -0.58742  -0.58699  -0.58539  -0.57406
 Alpha  occ. eigenvalues --   -0.57371  -0.57342  -0.57057  -0.56633  -0.56495
 Alpha  occ. eigenvalues --   -0.56450  -0.56410  -0.56045  -0.55891  -0.55364
 Alpha  occ. eigenvalues --   -0.55350  -0.55324  -0.54336  -0.54167  -0.54146
 Alpha  occ. eigenvalues --   -0.53946  -0.53711  -0.53665  -0.53642  -0.52680
 Alpha  occ. eigenvalues --   -0.52585  -0.52574  -0.52472  -0.52428  -0.51465
 Alpha  occ. eigenvalues --   -0.51454  -0.51450  -0.51367  -0.51301  -0.50669
 Alpha  occ. eigenvalues --   -0.50525  -0.50516  -0.50458  -0.50363  -0.50252
 Alpha  occ. eigenvalues --   -0.50215  -0.50050  -0.49994  -0.49983  -0.49713
 Alpha  occ. eigenvalues --   -0.49627  -0.49585  -0.49485  -0.49448  -0.49296
 Alpha  occ. eigenvalues --   -0.49264  -0.49202  -0.49118  -0.49075  -0.49000
 Alpha  occ. eigenvalues --   -0.48654  -0.48505  -0.48464  -0.48422  -0.47667
 Alpha  occ. eigenvalues --   -0.47635  -0.47123  -0.46478  -0.46042  -0.46011
 Alpha  occ. eigenvalues --   -0.45871  -0.45757  -0.45679  -0.45584  -0.45189
 Alpha  occ. eigenvalues --   -0.45143  -0.45127  -0.44795  -0.44600  -0.44487
 Alpha  occ. eigenvalues --   -0.44470  -0.44445  -0.44284  -0.44202  -0.44182
 Alpha  occ. eigenvalues --   -0.43477  -0.42989  -0.42559  -0.42509  -0.42450
 Alpha  occ. eigenvalues --   -0.42328  -0.42186  -0.42175  -0.42052  -0.41633
 Alpha  occ. eigenvalues --   -0.41619  -0.41569  -0.41016  -0.40973  -0.40781
 Alpha  occ. eigenvalues --   -0.40743  -0.40737  -0.40382  -0.40368  -0.40315
 Alpha  occ. eigenvalues --   -0.40198  -0.40169  -0.40139  -0.40114  -0.39845
 Alpha  occ. eigenvalues --   -0.39355  -0.39282  -0.39269  -0.39142  -0.39083
 Alpha  occ. eigenvalues --   -0.38917  -0.38893  -0.38832  -0.38794  -0.38713
 Alpha  occ. eigenvalues --   -0.38294  -0.38265  -0.38232  -0.37840  -0.37191
 Alpha  occ. eigenvalues --   -0.37178  -0.34959  -0.34945  -0.33564  -0.29858
 Alpha  occ. eigenvalues --   -0.26023
 Alpha virt. eigenvalues --   -0.12437  -0.06291  -0.06252  -0.04832  -0.04765
 Alpha virt. eigenvalues --   -0.04644  -0.01514  -0.01399  -0.01331  -0.01104
 Alpha virt. eigenvalues --   -0.00914  -0.00896  -0.00845  -0.00122  -0.00065

  Beta  occ. eigenvalues -- -197.11159-129.99223-129.99169-129.99168-101.62923
  Beta  occ. eigenvalues --  -22.43557 -19.28507 -19.28495 -19.28454 -19.28371
  Beta  occ. eigenvalues --  -19.28365 -19.28341 -19.28339 -19.28332 -19.28316
  Beta  occ. eigenvalues --  -19.28248 -19.28196 -19.28120 -19.26927 -19.26895
  Beta  occ. eigenvalues --  -19.26881 -19.26876 -19.26856 -19.26855 -19.26834
  Beta  occ. eigenvalues --  -19.26833 -19.26812 -19.26784 -19.26781 -19.26771
  Beta  occ. eigenvalues --  -19.26770 -19.26765 -19.26760 -19.26755 -19.26742
  Beta  occ. eigenvalues --  -19.26738 -19.26733 -19.26726 -19.26718 -19.26715
  Beta  occ. eigenvalues --  -19.26651 -19.26596 -19.24862 -19.24821 -19.24795
  Beta  occ. eigenvalues --  -19.24762 -18.94054 -18.91863 -18.91794 -13.36635
  Beta  occ. eigenvalues --  -13.36578 -13.36570 -10.69561 -10.69557 -10.69556
  Beta  occ. eigenvalues --  -10.69505 -10.69501 -10.69500 -10.69498 -10.69494
  Beta  occ. eigenvalues --  -10.69490 -10.33012 -10.32208 -10.31748 -10.30976
  Beta  occ. eigenvalues --  -10.30952 -10.30937 -10.30428 -10.30357  -9.53379
  Beta  occ. eigenvalues --   -7.29269  -7.27764  -7.27760  -3.21072  -3.21034
  Beta  occ. eigenvalues --   -3.21030  -3.21027  -3.21000  -3.20982  -3.20972
  Beta  occ. eigenvalues --   -3.20970  -3.20963  -3.20849  -3.20811  -3.20789
  Beta  occ. eigenvalues --   -2.74968  -1.85305  -1.85271  -1.85253  -1.85221
  Beta  occ. eigenvalues --   -1.85096  -1.85051  -1.85032  -1.85009  -1.84995
  Beta  occ. eigenvalues --   -1.84985  -1.84968  -1.84905  -1.84357  -1.84246
  Beta  occ. eigenvalues --   -1.84230  -1.84224  -1.84186  -1.84179  -1.84112
  Beta  occ. eigenvalues --   -1.84098  -1.84074  -1.84064  -1.84044  -1.84029
  Beta  occ. eigenvalues --   -1.83910  -1.83880  -1.83862  -1.83857  -1.83821
  Beta  occ. eigenvalues --   -1.83789  -1.83769  -1.83766  -1.83751  -1.83654
  Beta  occ. eigenvalues --   -1.83644  -1.83635  -1.80831  -1.76148  -1.75991
  Beta  occ. eigenvalues --   -1.50328  -1.50274  -1.50268  -1.08604  -1.06973
  Beta  occ. eigenvalues --   -1.06922  -1.06894  -1.06004  -1.05981  -1.05942
  Beta  occ. eigenvalues --   -1.04567  -1.04544  -1.04541  -1.03967  -1.03957
  Beta  occ. eigenvalues --   -1.03703  -1.03331  -1.03296  -1.03271  -1.03020
  Beta  occ. eigenvalues --   -1.02980  -1.02245  -1.02224  -1.02199  -1.02042
  Beta  occ. eigenvalues --   -1.01989  -1.01946  -1.01890  -1.01854  -1.01763
  Beta  occ. eigenvalues --   -1.01728  -1.01716  -1.01604  -1.01565  -1.01526
  Beta  occ. eigenvalues --   -1.01281  -1.00785  -1.00734  -1.00690  -1.00682
  Beta  occ. eigenvalues --   -0.99938  -0.99876  -0.99825  -0.96268  -0.89736
  Beta  occ. eigenvalues --   -0.85762  -0.85710  -0.85709  -0.85615  -0.85603
  Beta  occ. eigenvalues --   -0.85562  -0.85559  -0.85558  -0.85535  -0.84832
  Beta  occ. eigenvalues --   -0.84259  -0.82636  -0.72047  -0.69650  -0.65168
  Beta  occ. eigenvalues --   -0.62295  -0.61668  -0.61644  -0.61611  -0.60678
  Beta  occ. eigenvalues --   -0.58941  -0.58929  -0.58912  -0.58788  -0.58766
  Beta  occ. eigenvalues --   -0.58732  -0.58719  -0.58656  -0.58539  -0.57374
  Beta  occ. eigenvalues --   -0.57217  -0.57175  -0.57003  -0.56802  -0.56497
  Beta  occ. eigenvalues --   -0.56417  -0.56374  -0.55847  -0.55634  -0.55346
  Beta  occ. eigenvalues --   -0.55333  -0.55324  -0.54499  -0.54161  -0.54134
  Beta  occ. eigenvalues --   -0.53933  -0.53671  -0.53645  -0.53602  -0.52718
  Beta  occ. eigenvalues --   -0.52618  -0.52562  -0.52452  -0.52420  -0.51451
  Beta  occ. eigenvalues --   -0.51431  -0.51426  -0.51292  -0.51236  -0.50816
  Beta  occ. eigenvalues --   -0.50480  -0.50461  -0.50405  -0.50307  -0.50208
  Beta  occ. eigenvalues --   -0.50140  -0.50019  -0.49987  -0.49961  -0.49660
  Beta  occ. eigenvalues --   -0.49603  -0.49560  -0.49476  -0.49436  -0.49297
  Beta  occ. eigenvalues --   -0.49240  -0.49201  -0.49084  -0.49062  -0.48975
  Beta  occ. eigenvalues --   -0.48648  -0.48512  -0.48459  -0.48413  -0.47765
  Beta  occ. eigenvalues --   -0.47603  -0.47538  -0.45904  -0.45893  -0.45805
  Beta  occ. eigenvalues --   -0.45784  -0.45669  -0.45556  -0.45191  -0.45164
  Beta  occ. eigenvalues --   -0.45133  -0.45051  -0.44795  -0.44600  -0.44471
  Beta  occ. eigenvalues --   -0.44423  -0.44408  -0.44273  -0.44183  -0.44161
  Beta  occ. eigenvalues --   -0.43472  -0.43078  -0.42501  -0.42474  -0.42403
  Beta  occ. eigenvalues --   -0.42261  -0.42150  -0.42137  -0.42120  -0.41612
  Beta  occ. eigenvalues --   -0.41601  -0.41547  -0.41272  -0.41022  -0.40925
  Beta  occ. eigenvalues --   -0.40746  -0.40710  -0.40643  -0.40366  -0.40356
  Beta  occ. eigenvalues --   -0.40295  -0.40153  -0.40125  -0.40111  -0.39788
  Beta  occ. eigenvalues --   -0.39636  -0.39357  -0.39170  -0.39120  -0.39098
  Beta  occ. eigenvalues --   -0.38905  -0.38870  -0.38845  -0.38800  -0.38736
  Beta  occ. eigenvalues --   -0.38690  -0.38295  -0.38261  -0.38229  -0.37936
  Beta  occ. eigenvalues --   -0.37193  -0.37173  -0.35938  -0.35925  -0.33803
  Beta  occ. eigenvalues --   -0.30801
  Beta virt. eigenvalues --   -0.06289  -0.06252  -0.04831  -0.04764  -0.04644
  Beta virt. eigenvalues --   -0.01509  -0.01394  -0.01326  -0.01098  -0.00909
  Beta virt. eigenvalues --   -0.00891  -0.00841  -0.00113  -0.00051  -0.00015

 Mulliken charges and spin densities:
               1          2
     1  Cl  -0.336782  -0.635497
     2  C   -0.037172  -0.082031
     3  C    0.014617   0.045047
     4  C   -0.035844  -0.078330
     5  C   -0.030941   0.050382
     6  C    0.006024  -0.100498
     7  C   -0.048277   0.050242
     8  H    0.047682   0.003558
     9  H    0.049704   0.003376
    10  H    0.054563  -0.001773
    11  H    0.055391   0.004417
    12  H    0.053335  -0.001748
    13  C    0.000258  -0.207256
    14  C   -0.038864  -0.061981
    15  H    0.072499   0.008826
    16  H    0.094464   0.003635
    17  H    0.089286   0.002514
    18  O   -0.672555  -0.000575
    19  O   -0.669801  -0.000511
    20  O   -0.665780  -0.001768
    21  O   -0.671154  -0.000531
    22  W    1.719684   0.000364
    23  W    1.658388   0.000500
    24  W    1.670006   0.000196
    25  W    1.679204   0.000203
    26  W    1.663194   0.002696
    27  W    1.710886   0.002460
    28  W    1.612837   0.003253
    29  W    1.670573   0.002847
    30  O   -0.350564  -0.000542
    31  O   -0.393494  -0.000561
    32  O   -0.394194  -0.000613
    33  O   -0.390749  -0.000560
    34  O   -0.673859  -0.000313
    35  O   -0.678189  -0.000073
    36  O   -0.670803  -0.000141
    37  O   -0.672752  -0.000240
    38  O   -0.396582   0.001999
    39  O   -0.395633   0.002019
    40  O   -0.339619  -0.000610
    41  O   -0.394938   0.001995
    42  O   -0.677814   0.000091
    43  O   -0.672023   0.000173
    44  O   -0.668762   0.000307
    45  O   -0.674247   0.000117
    46  O   -0.397409   0.002330
    47  O   -0.352529   0.002239
    48  O   -0.389621   0.001839
    49  O   -0.393397   0.002409
    50  W    1.659196   0.002660
    51  W    1.662429   0.002552
    52  W    1.676843   0.003677
    53  W    1.669824   0.002475
    54  O   -0.721903   0.000094
    55  O   -0.706498   0.000006
    56  O   -0.722949   0.000161
    57  O   -0.720478   0.000052
    58  O   -0.705625   0.000005
    59  O   -0.724038   0.000142
    60  O   -0.722592   0.000194
    61  O   -0.718923   0.000187
    62  O   -0.723267  -0.000170
    63  O   -0.708112  -0.000021
    64  O   -0.722625  -0.000192
    65  O   -0.724568  -0.000205
    66  O   -0.886034   0.004923
    67  O   -0.885286   0.007101
    68  O   -0.883690   0.006954
    69  O   -0.889656   0.006475
    70  K    0.853041   0.000184
    71  K    0.853899   0.000202
    72  K    0.849953   0.000221
    73  V    1.202812   0.938443
 Sum of Mulliken charges =  -1.00000   0.00000

 Dipole moment (field-independent basis, Debye):
    X=             29.0671    Y=            -13.7835    Z=            -30.5717  Tot=             44.3792
 Quadrupole moment (field-independent basis, Debye-Ang):
   XX=           -774.1336   YY=           -703.0263   ZZ=           -778.8952
   XY=            131.2386   XZ=            183.8113   YZ=            -93.9725

 Normal termination of Gaussian 16 at Sun Jun  2 05:59:09 2024.
