 Gaussian 16, Revision C.01,
 Gaussian 16:  ES64L-G16RevC.01  3-Jul-2019

 ----------------------------------------------------------------------
 # def2svp wb97xd scrf=(smd,solvent=acetonitrile) g09default scf=(xqc,m
 axcycle=64) force guess=read nosymm
 ----------------------------------------------------------------------

 ----------
 Title Card
 ----------
 Symbolic Z-matrix:
 Charge = -1 Multiplicity = 1

                          Input orientation:
 ---------------------------------------------------------------------
 Center     Atomic      Atomic             Coordinates (Angstroms)
 Number     Number       Type             X           Y           Z
 ---------------------------------------------------------------------
      1         17           0       -9.884268    8.149973   10.535331
      2          6           0       -8.321579    4.234695   12.226278
      3          6           0       -9.099439    3.916729   11.098340
      4          6           0      -10.022949    2.860297   11.205031
      5          6           0      -10.198163    2.179359   12.405614
      6          6           0       -9.442836    2.531064   13.525329
      7          6           0       -8.492641    3.549908   13.425302
      8          1           0       -7.570766    5.025068   12.163737
      9          1           0      -10.606381    2.574391   10.325145
     10          1           0      -10.918784    1.360194   12.467499
     11          1           0       -9.577875    1.997464   14.468675
     12          1           0       -7.876822    3.809849   14.290043
     13          6           0       -8.990481    4.641855    9.831143
     14          6           0       -8.226204    5.724186    9.583013
     15          1           0       -9.616481    4.253723    9.020159
     16          1           0       -8.187146    6.148092    8.577666
     17          1           0       -7.555431    6.164324   10.323554
     18          8           0       -0.992802   -1.775062    7.461722
     19          8           0       -8.410436   -1.332715    7.461117
     20          8           0       -7.041441    1.347189   10.479214
     21          8           0       -2.331838   -4.370247   10.555285
     22         74           0       -3.414067    0.708897    6.480223
     23         74           0       -6.003263   -3.821586    6.571351
     24         74           0       -3.625899    0.897368   11.418941
     25         74           0       -5.769820   -3.859747   11.473218
     26         74           0       -2.451386   -2.570376    6.394107
     27         74           0       -6.945149   -0.536719    6.364828
     28         74           0       -6.825979   -0.247540   11.570891
     29         74           0       -2.559148   -2.709353   11.612801
     30          8           0       -3.174714    1.901243    5.309445
     31          8           0       -6.144029   -5.070226    5.427958
     32          8           0       -2.714413    1.749057   12.572932
     33          8           0       -6.673838   -4.673729   12.658442
     34          8           0       -2.673744   -0.891506    5.582084
     35          8           0       -6.714834   -2.269772    5.623903
     36          8           0       -5.320908    0.561692   12.364015
     37          8           0       -4.056926   -3.519293   12.405672
     38          8           0        0.297539    0.001679    9.274403
     39          8           0       -9.711820   -3.030727    9.322147
     40          8           0       -6.368203    3.422435    8.668861
     41          8           0       -2.986053   -6.470179    8.761005
     42          8           0       -1.795118    0.769022    7.475380
     43          8           0       -7.609420   -3.882293    7.550303
     44          8           0       -4.515054    2.215369   10.432909
     45          8           0       -4.870309   -5.219573   10.522977
     46          8           0       -1.616208   -3.507473    5.246978
     47          8           0       -7.837478    0.262240    5.174417
     48          8           0       -8.045591   -0.155967   12.748344
     49          8           0       -1.322978   -2.843066   12.770971
     50         74           0       -1.261257   -0.517258    8.837283
     51         74           0       -8.151163   -2.525857    8.874391
     52         74           0       -5.893088    1.851939    9.048876
     53         74           0       -3.482115   -4.896482    9.169034
     54          8           0       -4.225790   -3.098846    6.067256
     55          8           0       -5.166932   -0.046211    6.007597
     56          8           0       -6.176884   -1.994926   11.913960
     57          8           0       -3.175299   -0.964063   11.935892
     58          8           0       -4.368917    1.578907    7.842041
     59          8           0       -5.006265   -4.674678    7.922127
     60          8           0       -2.337149    0.589838   10.082427
     61          8           0       -7.060654   -3.610915   10.135844
     62          8           0       -2.575749   -3.884503    7.865474
     63          8           0       -6.823311    0.783730    7.808778
     64          8           0       -7.834715   -1.173534   10.143117
     65          8           0       -1.574745   -1.849383   10.139395
     66          8           0       -3.370414   -1.143049    8.003576
     67          8           0       -6.031705   -1.952621    8.034622
     68          8           0       -5.123418   -0.197771    9.950125
     69          8           0       -4.243677   -2.831005    9.977185
     70         19           0       -3.219998   -6.138609    5.648165
     71         19           0       -0.116928    0.055083   12.357952
     72         19           0       -9.289551   -2.891749   12.434208
     73         23           0       -4.695481   -1.526659    8.987851
 ---------------------------------------------------------------------

 SCF Done:  E(RwB97XD) =  -7327.70096353     A.U. after   12 cycles

 Alpha  occ. eigenvalues -- -197.29680-130.00189-130.00173-130.00094-101.47782
 Alpha  occ. eigenvalues --  -22.62782 -19.33746 -19.33732 -19.33723 -19.33692
 Alpha  occ. eigenvalues --  -19.30709 -19.30669 -19.30666 -19.30652 -19.30649
 Alpha  occ. eigenvalues --  -19.30640 -19.30639 -19.30590 -19.30512 -19.30342
 Alpha  occ. eigenvalues --  -19.30298 -19.30099 -19.29310 -19.29307 -19.29274
 Alpha  occ. eigenvalues --  -19.29271 -19.29266 -19.29260 -19.29238 -19.29187
 Alpha  occ. eigenvalues --  -19.29178 -19.29158 -19.29130 -19.29126 -19.29117
 Alpha  occ. eigenvalues --  -19.29111 -19.29086 -19.29084 -19.29083 -19.29056
 Alpha  occ. eigenvalues --  -19.29046 -19.28963 -19.28957 -19.28930 -19.28920
 Alpha  occ. eigenvalues --  -19.28801 -19.11742 -19.11733 -19.11724 -13.37595
 Alpha  occ. eigenvalues --  -13.37578 -13.37490 -10.70524 -10.70517 -10.70516
 Alpha  occ. eigenvalues --  -10.70507 -10.70500 -10.70499 -10.70420 -10.70413
 Alpha  occ. eigenvalues --  -10.70410 -10.29877 -10.29366 -10.29316 -10.29124
 Alpha  occ. eigenvalues --  -10.29046 -10.29014 -10.28250 -10.27792  -9.38236
 Alpha  occ. eigenvalues --   -7.13059  -7.13018  -7.13015  -3.23285  -3.23281
 Alpha  occ. eigenvalues --   -3.23266  -3.23266  -3.23261  -3.23253  -3.23212
 Alpha  occ. eigenvalues --   -3.23204  -3.23156  -3.22943  -3.22938  -3.22704
 Alpha  occ. eigenvalues --   -2.91966  -1.94326  -1.94299  -1.94290  -1.87700
 Alpha  occ. eigenvalues --   -1.87643  -1.87625  -1.87575  -1.87463  -1.87456
 Alpha  occ. eigenvalues --   -1.87440  -1.87414  -1.87375  -1.87251  -1.87213
 Alpha  occ. eigenvalues --   -1.87038  -1.86599  -1.86480  -1.86473  -1.86449
 Alpha  occ. eigenvalues --   -1.86430  -1.86392  -1.86316  -1.86304  -1.86283
 Alpha  occ. eigenvalues --   -1.86264  -1.86243  -1.86212  -1.86116  -1.86099
 Alpha  occ. eigenvalues --   -1.86095  -1.86070  -1.86020  -1.85975  -1.85954
 Alpha  occ. eigenvalues --   -1.85895  -1.85868  -1.85772  -1.85650  -1.85599
 Alpha  occ. eigenvalues --   -1.51274  -1.51260  -1.51174  -1.13110  -1.11353
 Alpha  occ. eigenvalues --   -1.11269  -1.11252  -1.08968  -1.08519  -1.08473
 Alpha  occ. eigenvalues --   -1.08268  -1.07567  -1.07513  -1.07495  -1.06888
 Alpha  occ. eigenvalues --   -1.06853  -1.06838  -1.06303  -1.06274  -1.05292
 Alpha  occ. eigenvalues --   -1.05282  -1.04964  -1.04951  -1.04936  -1.04166
 Alpha  occ. eigenvalues --   -1.04164  -1.04145  -1.04000  -1.03979  -1.03961
 Alpha  occ. eigenvalues --   -1.03922  -1.03875  -1.03853  -1.03733  -1.03690
 Alpha  occ. eigenvalues --   -1.03592  -1.03539  -1.03275  -1.03224  -1.03090
 Alpha  occ. eigenvalues --   -1.03073  -1.03015  -1.02928  -0.94427  -0.86734
 Alpha  occ. eigenvalues --   -0.86721  -0.86640  -0.86593  -0.86548  -0.86536
 Alpha  occ. eigenvalues --   -0.86532  -0.86531  -0.86454  -0.86430  -0.82850
 Alpha  occ. eigenvalues --   -0.79860  -0.70927  -0.69812  -0.68089  -0.64570
 Alpha  occ. eigenvalues --   -0.63926  -0.63891  -0.63882  -0.63361  -0.63327
 Alpha  occ. eigenvalues --   -0.63220  -0.63075  -0.62710  -0.62626  -0.62038
 Alpha  occ. eigenvalues --   -0.61618  -0.61601  -0.61511  -0.61207  -0.61187
 Alpha  occ. eigenvalues --   -0.61151  -0.60396  -0.59470  -0.59437  -0.59425
 Alpha  occ. eigenvalues --   -0.59408  -0.59371  -0.58707  -0.57973  -0.57949
 Alpha  occ. eigenvalues --   -0.57877  -0.57102  -0.57066  -0.57032  -0.56289
 Alpha  occ. eigenvalues --   -0.56244  -0.56078  -0.55680  -0.54838  -0.54772
 Alpha  occ. eigenvalues --   -0.54735  -0.54602  -0.54220  -0.54104  -0.54065
 Alpha  occ. eigenvalues --   -0.54018  -0.53948  -0.53206  -0.53168  -0.53042
 Alpha  occ. eigenvalues --   -0.52980  -0.52867  -0.52691  -0.52628  -0.52607
 Alpha  occ. eigenvalues --   -0.52566  -0.52533  -0.52462  -0.52440  -0.51568
 Alpha  occ. eigenvalues --   -0.51546  -0.51364  -0.51324  -0.51295  -0.51237
 Alpha  occ. eigenvalues --   -0.51170  -0.51152  -0.51027  -0.50715  -0.50537
 Alpha  occ. eigenvalues --   -0.50530  -0.50497  -0.49876  -0.49859  -0.49316
 Alpha  occ. eigenvalues --   -0.49264  -0.49236  -0.49181  -0.49139  -0.49039
 Alpha  occ. eigenvalues --   -0.48892  -0.48074  -0.48020  -0.47917  -0.47737
 Alpha  occ. eigenvalues --   -0.47346  -0.47279  -0.47225  -0.47006  -0.46942
 Alpha  occ. eigenvalues --   -0.46820  -0.46546  -0.46479  -0.46443  -0.46221
 Alpha  occ. eigenvalues --   -0.46158  -0.46104  -0.45640  -0.45075  -0.44896
 Alpha  occ. eigenvalues --   -0.44865  -0.44173  -0.44149  -0.44031  -0.43622
 Alpha  occ. eigenvalues --   -0.43281  -0.43226  -0.43102  -0.43079  -0.43043
 Alpha  occ. eigenvalues --   -0.42698  -0.42670  -0.42649  -0.42584  -0.42582
 Alpha  occ. eigenvalues --   -0.42494  -0.42448  -0.42433  -0.42270  -0.42254
 Alpha  occ. eigenvalues --   -0.42229  -0.42004  -0.41889  -0.41838  -0.41821
 Alpha  occ. eigenvalues --   -0.41249  -0.41159  -0.41131  -0.41016  -0.40530
 Alpha  occ. eigenvalues --   -0.40510  -0.40503  -0.40429  -0.39431  -0.39409
 Alpha  occ. eigenvalues --   -0.36963  -0.32566  -0.28906  -0.24641  -0.24619
 Alpha  occ. eigenvalues --   -0.23460
 Alpha virt. eigenvalues --   -0.09640  -0.09432  -0.08430  -0.08380  -0.06989
 Alpha virt. eigenvalues --   -0.06945  -0.06827  -0.04616  -0.04292  -0.04265
 Alpha virt. eigenvalues --   -0.03704  -0.03536  -0.03453  -0.03222  -0.03130

 Mulliken charges:
               1
     1  Cl  -0.927805
     2  C   -0.077299
     3  C    0.042484
     4  C   -0.075537
     5  C   -0.033350
     6  C   -0.031583
     7  C   -0.049756
     8  H    0.029667
     9  H    0.030645
    10  H    0.041381
    11  H    0.037469
    12  H    0.040267
    13  C   -0.103331
    14  C    0.014750
    15  H    0.022355
    16  H    0.042326
    17  H    0.033562
    18  O   -0.663763
    19  O   -0.661123
    20  O   -0.654616
    21  O   -0.662249
    22  W    1.736490
    23  W    1.673259
    24  W    1.682792
    25  W    1.693519
    26  W    1.677012
    27  W    1.728731
    28  W    1.621167
    29  W    1.685075
    30  O   -0.320670
    31  O   -0.365315
    32  O   -0.365855
    33  O   -0.361815
    34  O   -0.665608
    35  O   -0.670791
    36  O   -0.662019
    37  O   -0.664061
    38  O   -0.367122
    39  O   -0.365765
    40  O   -0.294603
    41  O   -0.364957
    42  O   -0.670108
    43  O   -0.663441
    44  O   -0.660420
    45  O   -0.665873
    46  O   -0.367845
    47  O   -0.321195
    48  O   -0.357189
    49  O   -0.363091
    50  W    1.673663
    51  W    1.677193
    52  W    1.683287
    53  W    1.684623
    54  O   -0.723954
    55  O   -0.708101
    56  O   -0.726275
    57  O   -0.722224
    58  O   -0.708280
    59  O   -0.726935
    60  O   -0.725121
    61  O   -0.721227
    62  O   -0.724940
    63  O   -0.709805
    64  O   -0.723674
    65  O   -0.726788
    66  O   -0.803556
    67  O   -0.802147
    68  O   -0.800074
    69  O   -0.809304
    70  K    0.866235
    71  K    0.866955
    72  K    0.863367
    73  V    1.192285
 Sum of Mulliken charges =  -1.00000

 Dipole moment (field-independent basis, Debye):
    X=             51.6320    Y=            -51.6670    Z=            -38.5300  Tot=             82.5827
 Quadrupole moment (field-independent basis, Debye-Ang):
   XX=          -1065.6730   YY=           -885.8779   ZZ=           -910.1901
   XY=            460.5497   XZ=            462.8231   YZ=           -482.4495

 Normal termination of Gaussian 16 at Sun Jun  2 06:52:21 2024.
