 Gaussian 16, Revision C.01,
 Gaussian 16:  ES64L-G16RevC.01  3-Jul-2019

 ----------------------------------------------------------------------
 # def2svp wb97xd scrf=(smd,solvent=acetonitrile) g09default scf=(xqc,m
 axcycle=64) force guess=read nosymm
 ----------------------------------------------------------------------

 ----------
 Title Card
 ----------
 Symbolic Z-matrix:
 Charge = -1 Multiplicity = 1

                          Input orientation:
 ---------------------------------------------------------------------
 Center     Atomic      Atomic             Coordinates (Angstroms)
 Number     Number       Type             X           Y           Z
 ---------------------------------------------------------------------
      1         17           0       -9.884268    8.149973   10.535331
      2          6           0       -8.321579    4.234695   12.226278
      3          6           0       -9.099439    3.916729   11.098340
      4          6           0      -10.022949    2.860297   11.205031
      5          6           0      -10.198163    2.179359   12.405614
      6          6           0       -9.442836    2.531064   13.525329
      7          6           0       -8.492641    3.549908   13.425302
      8          1           0       -7.570766    5.025068   12.163737
      9          1           0      -10.606381    2.574391   10.325145
     10          1           0      -10.918784    1.360194   12.467499
     11          1           0       -9.577875    1.997464   14.468675
     12          1           0       -7.876822    3.809849   14.290043
     13          6           0       -8.990481    4.641855    9.831143
     14          6           0       -8.226204    5.724186    9.583013
     15          1           0       -9.616481    4.253723    9.020159
     16          1           0       -8.187146    6.148092    8.577666
     17          1           0       -7.555431    6.164324   10.323554
     18          8           0       -0.992802   -1.775062    7.461722
     19          8           0       -8.410436   -1.332715    7.461117
     20          8           0       -7.041441    1.347189   10.479214
     21          8           0       -2.331838   -4.370247   10.555285
     22         74           0       -3.414067    0.708897    6.480223
     23         74           0       -6.003263   -3.821586    6.571351
     24         74           0       -3.625899    0.897368   11.418941
     25         74           0       -5.769820   -3.859747   11.473218
     26         74           0       -2.451386   -2.570376    6.394107
     27         74           0       -6.945149   -0.536719    6.364828
     28         74           0       -6.825979   -0.247540   11.570891
     29         74           0       -2.559148   -2.709353   11.612801
     30          8           0       -3.174714    1.901243    5.309445
     31          8           0       -6.144029   -5.070226    5.427958
     32          8           0       -2.714413    1.749057   12.572932
     33          8           0       -6.673838   -4.673729   12.658442
     34          8           0       -2.673744   -0.891506    5.582084
     35          8           0       -6.714834   -2.269772    5.623903
     36          8           0       -5.320908    0.561692   12.364015
     37          8           0       -4.056926   -3.519293   12.405672
     38          8           0        0.297539    0.001679    9.274403
     39          8           0       -9.711820   -3.030727    9.322147
     40          8           0       -6.368203    3.422435    8.668861
     41          8           0       -2.986053   -6.470179    8.761005
     42          8           0       -1.795118    0.769022    7.475380
     43          8           0       -7.609420   -3.882293    7.550303
     44          8           0       -4.515054    2.215369   10.432909
     45          8           0       -4.870309   -5.219573   10.522977
     46          8           0       -1.616208   -3.507473    5.246978
     47          8           0       -7.837478    0.262240    5.174417
     48          8           0       -8.045591   -0.155967   12.748344
     49          8           0       -1.322978   -2.843066   12.770971
     50         74           0       -1.261257   -0.517258    8.837283
     51         74           0       -8.151163   -2.525857    8.874391
     52         74           0       -5.893088    1.851939    9.048876
     53         74           0       -3.482115   -4.896482    9.169034
     54          8           0       -4.225790   -3.098846    6.067256
     55          8           0       -5.166932   -0.046211    6.007597
     56          8           0       -6.176884   -1.994926   11.913960
     57          8           0       -3.175299   -0.964063   11.935892
     58          8           0       -4.368917    1.578907    7.842041
     59          8           0       -5.006265   -4.674678    7.922127
     60          8           0       -2.337149    0.589838   10.082427
     61          8           0       -7.060654   -3.610915   10.135844
     62          8           0       -2.575749   -3.884503    7.865474
     63          8           0       -6.823311    0.783730    7.808778
     64          8           0       -7.834715   -1.173534   10.143117
     65          8           0       -1.574745   -1.849383   10.139395
     66          8           0       -3.370414   -1.143049    8.003576
     67          8           0       -6.031705   -1.952621    8.034622
     68          8           0       -5.123418   -0.197771    9.950125
     69          8           0       -4.243677   -2.831005    9.977185
     70         19           0       -3.219998   -6.138609    5.648165
     71         19           0       -0.116928    0.055083   12.357952
     72         19           0       -9.289551   -2.891749   12.434208
     73         23           0       -4.695481   -1.526659    8.987851
 ---------------------------------------------------------------------

 SCF Done:  E(UwB97XD) =  -7327.70101439     A.U. after   46 cycles

 Alpha  occ. eigenvalues --  -19.24800 -18.94430 -18.93341 -18.93305 -13.36635
 Alpha  occ. eigenvalues --  -13.36572 -13.36568 -10.69561 -10.69557 -10.69556
 Alpha  occ. eigenvalues --  -10.69498 -10.69495 -10.69494 -10.69493 -10.69491
 Alpha  occ. eigenvalues --  -10.69488 -10.32795 -10.32057 -10.31802 -10.30880
 Alpha  occ. eigenvalues --  -10.30872 -10.30862 -10.30485 -10.30415  -9.52938
 Alpha  occ. eigenvalues --   -7.27828  -7.27468  -7.27465  -3.21075  -3.21040
 Alpha  occ. eigenvalues --   -3.21036  -3.21030  -3.21008  -3.20992  -3.20981
 Alpha  occ. eigenvalues --   -3.20980  -3.20971  -3.20855  -3.20819  -3.20801
 Alpha  occ. eigenvalues --   -2.79056  -1.85313  -1.85277  -1.85258  -1.85230
 Alpha  occ. eigenvalues --   -1.85105  -1.85057  -1.85039  -1.85017  -1.85004
 Alpha  occ. eigenvalues --   -1.84996  -1.84978  -1.84911  -1.84361  -1.84250
 Alpha  occ. eigenvalues --   -1.84235  -1.84230  -1.84192  -1.84185  -1.84117
 Alpha  occ. eigenvalues --   -1.84103  -1.84081  -1.84071  -1.84050  -1.84035
 Alpha  occ. eigenvalues --   -1.83914  -1.83886  -1.83866  -1.83861  -1.83827
 Alpha  occ. eigenvalues --   -1.83795  -1.83774  -1.83771  -1.83758  -1.83658
 Alpha  occ. eigenvalues --   -1.83650  -1.83642  -1.82190  -1.81859  -1.81831
 Alpha  occ. eigenvalues --   -1.50328  -1.50268  -1.50266  -1.08623  -1.06993
 Alpha  occ. eigenvalues --   -1.06949  -1.06922  -1.06007  -1.05986  -1.05944
 Alpha  occ. eigenvalues --   -1.04568  -1.04545  -1.04540  -1.03970  -1.03958
 Alpha  occ. eigenvalues --   -1.03772  -1.03367  -1.03340  -1.03312  -1.03019
 Alpha  occ. eigenvalues --   -1.02986  -1.02265  -1.02247  -1.02217  -1.02052
 Alpha  occ. eigenvalues --   -1.01991  -1.01957  -1.01895  -1.01866  -1.01765
 Alpha  occ. eigenvalues --   -1.01731  -1.01719  -1.01609  -1.01570  -1.01538
 Alpha  occ. eigenvalues --   -1.01280  -1.00823  -1.00732  -1.00689  -1.00681
 Alpha  occ. eigenvalues --   -1.00070  -1.00001  -0.99949  -0.96074  -0.89125
 Alpha  occ. eigenvalues --   -0.85762  -0.85707  -0.85704  -0.85615  -0.85602
 Alpha  occ. eigenvalues --   -0.85561  -0.85553  -0.85551  -0.85532  -0.84174
 Alpha  occ. eigenvalues --   -0.82284  -0.81222  -0.71813  -0.69544  -0.64956
 Alpha  occ. eigenvalues --   -0.62298  -0.61669  -0.61647  -0.61617  -0.60500
 Alpha  occ. eigenvalues --   -0.58955  -0.58931  -0.58918  -0.58859  -0.58804
 Alpha  occ. eigenvalues --   -0.58773  -0.58745  -0.58703  -0.58541  -0.57405
 Alpha  occ. eigenvalues --   -0.57372  -0.57344  -0.57058  -0.56632  -0.56497
 Alpha  occ. eigenvalues --   -0.56454  -0.56412  -0.56047  -0.55893  -0.55363
 Alpha  occ. eigenvalues --   -0.55349  -0.55324  -0.54345  -0.54166  -0.54144
 Alpha  occ. eigenvalues --   -0.53941  -0.53715  -0.53669  -0.53645  -0.52679
 Alpha  occ. eigenvalues --   -0.52584  -0.52575  -0.52472  -0.52428  -0.51464
 Alpha  occ. eigenvalues --   -0.51451  -0.51450  -0.51364  -0.51298  -0.50672
 Alpha  occ. eigenvalues --   -0.50526  -0.50517  -0.50458  -0.50363  -0.50253
 Alpha  occ. eigenvalues --   -0.50219  -0.50049  -0.49993  -0.49980  -0.49712
 Alpha  occ. eigenvalues --   -0.49625  -0.49580  -0.49483  -0.49445  -0.49295
 Alpha  occ. eigenvalues --   -0.49262  -0.49203  -0.49120  -0.49079  -0.49004
 Alpha  occ. eigenvalues --   -0.48653  -0.48504  -0.48463  -0.48418  -0.47663
 Alpha  occ. eigenvalues --   -0.47631  -0.47124  -0.46477  -0.46041  -0.46011
 Alpha  occ. eigenvalues --   -0.45870  -0.45756  -0.45686  -0.45585  -0.45191
 Alpha  occ. eigenvalues --   -0.45141  -0.45125  -0.44790  -0.44599  -0.44487
 Alpha  occ. eigenvalues --   -0.44471  -0.44445  -0.44287  -0.44201  -0.44178
 Alpha  occ. eigenvalues --   -0.43478  -0.42995  -0.42558  -0.42508  -0.42448
 Alpha  occ. eigenvalues --   -0.42330  -0.42187  -0.42175  -0.42056  -0.41631
 Alpha  occ. eigenvalues --   -0.41618  -0.41568  -0.41015  -0.40971  -0.40779
 Alpha  occ. eigenvalues --   -0.40743  -0.40735  -0.40379  -0.40364  -0.40312
 Alpha  occ. eigenvalues --   -0.40195  -0.40167  -0.40139  -0.40113  -0.39842
 Alpha  occ. eigenvalues --   -0.39354  -0.39277  -0.39268  -0.39139  -0.39084
 Alpha  occ. eigenvalues --   -0.38912  -0.38890  -0.38829  -0.38793  -0.38711
 Alpha  occ. eigenvalues --   -0.38291  -0.38263  -0.38229  -0.37849  -0.37191
 Alpha  occ. eigenvalues --   -0.37177  -0.34976  -0.34962  -0.33569  -0.29873
 Alpha  occ. eigenvalues --   -0.26045
 Alpha virt. eigenvalues --   -0.12463  -0.06305  -0.06265  -0.04842  -0.04780
 Alpha virt. eigenvalues --   -0.04654  -0.01517  -0.01400  -0.01333  -0.01112
 Alpha virt. eigenvalues --   -0.00918  -0.00901  -0.00850  -0.00125  -0.00068

  Beta  occ. eigenvalues -- -197.11192-129.99222-129.99165-129.99161-101.62946
  Beta  occ. eigenvalues --  -22.43586 -19.28509 -19.28492 -19.28454 -19.28374
  Beta  occ. eigenvalues --  -19.28364 -19.28340 -19.28338 -19.28331 -19.28315
  Beta  occ. eigenvalues --  -19.28250 -19.28206 -19.28114 -19.26927 -19.26892
  Beta  occ. eigenvalues --  -19.26877 -19.26872 -19.26856 -19.26852 -19.26834
  Beta  occ. eigenvalues --  -19.26828 -19.26811 -19.26786 -19.26779 -19.26771
  Beta  occ. eigenvalues --  -19.26767 -19.26765 -19.26755 -19.26751 -19.26740
  Beta  occ. eigenvalues --  -19.26736 -19.26733 -19.26724 -19.26717 -19.26711
  Beta  occ. eigenvalues --  -19.26651 -19.26597 -19.24864 -19.24831 -19.24790
  Beta  occ. eigenvalues --  -19.24775 -18.94083 -18.91894 -18.91822 -13.36635
  Beta  occ. eigenvalues --  -13.36572 -13.36568 -10.69561 -10.69557 -10.69556
  Beta  occ. eigenvalues --  -10.69498 -10.69495 -10.69494 -10.69493 -10.69491
  Beta  occ. eigenvalues --  -10.69487 -10.33026 -10.32202 -10.31762 -10.30988
  Beta  occ. eigenvalues --  -10.30962 -10.30948 -10.30434 -10.30364  -9.53402
  Beta  occ. eigenvalues --   -7.29292  -7.27786  -7.27782  -3.21075  -3.21040
  Beta  occ. eigenvalues --   -3.21031  -3.21029  -3.21002  -3.20986  -3.20975
  Beta  occ. eigenvalues --   -3.20974  -3.20965  -3.20855  -3.20815  -3.20796
  Beta  occ. eigenvalues --   -2.74986  -1.85308  -1.85272  -1.85253  -1.85222
  Beta  occ. eigenvalues --   -1.85099  -1.85052  -1.85032  -1.85011  -1.84997
  Beta  occ. eigenvalues --   -1.84986  -1.84973  -1.84903  -1.84359  -1.84248
  Beta  occ. eigenvalues --   -1.84233  -1.84226  -1.84189  -1.84182  -1.84114
  Beta  occ. eigenvalues --   -1.84101  -1.84078  -1.84068  -1.84047  -1.84032
  Beta  occ. eigenvalues --   -1.83912  -1.83883  -1.83863  -1.83858  -1.83824
  Beta  occ. eigenvalues --   -1.83793  -1.83771  -1.83769  -1.83755  -1.83656
  Beta  occ. eigenvalues --   -1.83647  -1.83639  -1.80846  -1.76165  -1.76003
  Beta  occ. eigenvalues --   -1.50328  -1.50268  -1.50266  -1.08605  -1.06973
  Beta  occ. eigenvalues --   -1.06925  -1.06895  -1.06005  -1.05983  -1.05944
  Beta  occ. eigenvalues --   -1.04569  -1.04544  -1.04541  -1.03969  -1.03960
  Beta  occ. eigenvalues --   -1.03705  -1.03332  -1.03300  -1.03274  -1.03019
  Beta  occ. eigenvalues --   -1.02979  -1.02245  -1.02223  -1.02199  -1.02044
  Beta  occ. eigenvalues --   -1.01987  -1.01945  -1.01891  -1.01853  -1.01762
  Beta  occ. eigenvalues --   -1.01729  -1.01716  -1.01607  -1.01567  -1.01522
  Beta  occ. eigenvalues --   -1.01280  -1.00785  -1.00733  -1.00688  -1.00681
  Beta  occ. eigenvalues --   -0.99938  -0.99880  -0.99830  -0.96274  -0.89732
  Beta  occ. eigenvalues --   -0.85762  -0.85707  -0.85704  -0.85615  -0.85602
  Beta  occ. eigenvalues --   -0.85561  -0.85553  -0.85551  -0.85532  -0.84855
  Beta  occ. eigenvalues --   -0.84265  -0.82638  -0.72052  -0.69654  -0.65174
  Beta  occ. eigenvalues --   -0.62298  -0.61669  -0.61647  -0.61617  -0.60678
  Beta  occ. eigenvalues --   -0.58943  -0.58930  -0.58916  -0.58788  -0.58770
  Beta  occ. eigenvalues --   -0.58736  -0.58721  -0.58657  -0.58541  -0.57374
  Beta  occ. eigenvalues --   -0.57218  -0.57176  -0.57004  -0.56801  -0.56500
  Beta  occ. eigenvalues --   -0.56421  -0.56376  -0.55849  -0.55637  -0.55346
  Beta  occ. eigenvalues --   -0.55331  -0.55324  -0.54509  -0.54160  -0.54132
  Beta  occ. eigenvalues --   -0.53929  -0.53674  -0.53649  -0.53605  -0.52717
  Beta  occ. eigenvalues --   -0.52618  -0.52564  -0.52453  -0.52420  -0.51448
  Beta  occ. eigenvalues --   -0.51432  -0.51425  -0.51289  -0.51234  -0.50819
  Beta  occ. eigenvalues --   -0.50481  -0.50463  -0.50408  -0.50307  -0.50210
  Beta  occ. eigenvalues --   -0.50139  -0.50018  -0.49985  -0.49959  -0.49658
  Beta  occ. eigenvalues --   -0.49600  -0.49555  -0.49475  -0.49434  -0.49296
  Beta  occ. eigenvalues --   -0.49238  -0.49202  -0.49088  -0.49065  -0.48980
  Beta  occ. eigenvalues --   -0.48647  -0.48510  -0.48458  -0.48409  -0.47764
  Beta  occ. eigenvalues --   -0.47598  -0.47539  -0.45904  -0.45893  -0.45806
  Beta  occ. eigenvalues --   -0.45790  -0.45667  -0.45555  -0.45192  -0.45162
  Beta  occ. eigenvalues --   -0.45130  -0.45049  -0.44790  -0.44598  -0.44471
  Beta  occ. eigenvalues --   -0.44421  -0.44410  -0.44274  -0.44181  -0.44159
  Beta  occ. eigenvalues --   -0.43474  -0.43086  -0.42499  -0.42471  -0.42400
  Beta  occ. eigenvalues --   -0.42263  -0.42150  -0.42139  -0.42124  -0.41611
  Beta  occ. eigenvalues --   -0.41599  -0.41546  -0.41271  -0.41021  -0.40923
  Beta  occ. eigenvalues --   -0.40746  -0.40708  -0.40644  -0.40364  -0.40352
  Beta  occ. eigenvalues --   -0.40292  -0.40152  -0.40124  -0.40110  -0.39786
  Beta  occ. eigenvalues --   -0.39634  -0.39356  -0.39168  -0.39118  -0.39097
  Beta  occ. eigenvalues --   -0.38902  -0.38866  -0.38843  -0.38798  -0.38737
  Beta  occ. eigenvalues --   -0.38688  -0.38293  -0.38259  -0.38226  -0.37958
  Beta  occ. eigenvalues --   -0.37193  -0.37172  -0.35956  -0.35942  -0.33809
  Beta  occ. eigenvalues --   -0.30811
  Beta virt. eigenvalues --   -0.06303  -0.06265  -0.04841  -0.04779  -0.04653
  Beta virt. eigenvalues --   -0.01513  -0.01395  -0.01327  -0.01106  -0.00913
  Beta virt. eigenvalues --   -0.00897  -0.00846  -0.00115  -0.00054  -0.00020

 Mulliken charges and spin densities:
               1          2
     1  Cl  -0.335909  -0.635955
     2  C   -0.036952  -0.082647
     3  C    0.014535   0.045418
     4  C   -0.035748  -0.078885
     5  C   -0.031040   0.050717
     6  C    0.005998  -0.101265
     7  C   -0.048258   0.050627
     8  H    0.047935   0.003594
     9  H    0.049861   0.003400
    10  H    0.054741  -0.001786
    11  H    0.055540   0.004450
    12  H    0.053450  -0.001762
    13  C    0.000253  -0.209254
    14  C   -0.040293  -0.058586
    15  H    0.072682   0.008900
    16  H    0.094571   0.003487
    17  H    0.088874   0.002299
    18  O   -0.672661  -0.000576
    19  O   -0.670071  -0.000513
    20  O   -0.665901  -0.001755
    21  O   -0.671355  -0.000533
    22  W    1.720091   0.000365
    23  W    1.659158   0.000498
    24  W    1.670514   0.000194
    25  W    1.679838   0.000204
    26  W    1.663491   0.002690
    27  W    1.711271   0.002454
    28  W    1.612781   0.003253
    29  W    1.670958   0.002840
    30  O   -0.350544  -0.000543
    31  O   -0.393709  -0.000563
    32  O   -0.394218  -0.000613
    33  O   -0.390561  -0.000560
    34  O   -0.674062  -0.000312
    35  O   -0.678299  -0.000070
    36  O   -0.671026  -0.000141
    37  O   -0.673005  -0.000240
    38  O   -0.396842   0.001998
    39  O   -0.395759   0.002020
    40  O   -0.339244  -0.000525
    41  O   -0.394970   0.001994
    42  O   -0.677926   0.000087
    43  O   -0.672147   0.000169
    44  O   -0.669138   0.000302
    45  O   -0.674354   0.000116
    46  O   -0.397806   0.002325
    47  O   -0.352939   0.002240
    48  O   -0.390020   0.001839
    49  O   -0.393276   0.002407
    50  W    1.659621   0.002653
    51  W    1.662993   0.002547
    52  W    1.677352   0.003661
    53  W    1.670204   0.002469
    54  O   -0.722029   0.000095
    55  O   -0.706708   0.000007
    56  O   -0.722995   0.000161
    57  O   -0.720652   0.000053
    58  O   -0.705797   0.000009
    59  O   -0.724181   0.000141
    60  O   -0.722669   0.000193
    61  O   -0.719038   0.000186
    62  O   -0.723373  -0.000172
    63  O   -0.708335  -0.000024
    64  O   -0.722692  -0.000194
    65  O   -0.724634  -0.000207
    66  O   -0.886227   0.004897
    67  O   -0.885544   0.007085
    68  O   -0.883562   0.006924
    69  O   -0.889582   0.006455
    70  K    0.852792   0.000183
    71  K    0.853810   0.000201
    72  K    0.849848   0.000219
    73  V    1.202889   0.938651
 Sum of Mulliken charges =  -1.00000   0.00000

 Dipole moment (field-independent basis, Debye):
    X=             29.0143    Y=            -13.7670    Z=            -30.5412  Tot=             44.3185
 Quadrupole moment (field-independent basis, Debye-Ang):
   XX=           -773.1005   YY=           -703.6400   ZZ=           -778.2672
   XY=            130.9486   XZ=            183.0974   YZ=            -93.8741

 Normal termination of Gaussian 16 at Sun Jun  2 06:41:22 2024.
