 Gaussian 16, Revision C.01,
 Gaussian 16:  ES64L-G16RevC.01  3-Jul-2019

 ----------------------------------------------------------------------
 # def2svp wb97xd scrf=(smd,solvent=acetonitrile) g09default scf=(xqc,m
 axcycle=64) force guess=read nosymm
 ----------------------------------------------------------------------

 ----------
 Title Card
 ----------
 Symbolic Z-matrix:
 Charge = -1 Multiplicity = 1

                          Input orientation:
 ---------------------------------------------------------------------
 Center     Atomic      Atomic             Coordinates (Angstroms)
 Number     Number       Type             X           Y           Z
 ---------------------------------------------------------------------
      1         17           0       -9.866017    8.173230   10.540928
      2          6           0       -8.323140    4.234484   12.225283
      3          6           0       -9.103383    3.917404   11.098712
      4          6           0      -10.024986    2.859308   11.206073
      5          6           0      -10.199312    2.179051   12.407097
      6          6           0       -9.444541    2.532518   13.526620
      7          6           0       -8.493379    3.550250   13.424852
      8          1           0       -7.570779    5.023267   12.161170
      9          1           0      -10.608146    2.571653   10.326448
     10          1           0      -10.918103    1.358182   12.469269
     11          1           0       -9.579439    1.999874   14.470653
     12          1           0       -7.875119    3.809034   14.288178
     13          6           0       -8.998784    4.645041    9.832351
     14          6           0       -8.243433    5.734185    9.585312
     15          1           0       -9.620351    4.252226    9.020195
     16          1           0       -8.205076    6.155782    8.578775
     17          1           0       -7.578133    6.181632   10.326134
     18          8           0       -0.990729   -1.777334    7.462611
     19          8           0       -8.409507   -1.333232    7.461111
     20          8           0       -7.039700    1.347217   10.477887
     21          8           0       -2.332136   -4.372740   10.554537
     22         74           0       -3.413229    0.705465    6.478791
     23         74           0       -6.001833   -3.820711    6.569749
     24         74           0       -3.624740    0.894119   11.419832
     25         74           0       -5.768709   -3.859087   11.473746
     26         74           0       -2.448542   -2.573666    6.395339
     27         74           0       -6.945510   -0.536048    6.366265
     28         74           0       -6.826012   -0.247373   11.568819
     29         74           0       -2.556671   -2.711689   11.610991
     30          8           0       -3.173490    1.896692    5.307143
     31          8           0       -6.142101   -5.069727    5.426729
     32          8           0       -2.712235    1.745349   12.573942
     33          8           0       -6.673862   -4.671633   12.659205
     34          8           0       -2.671179   -0.894906    5.582122
     35          8           0       -6.713827   -2.269293    5.623614
     36          8           0       -5.320400    0.560491   12.363505
     37          8           0       -4.055755   -3.519919   12.404869
     38          8           0        0.298310    0.001107    9.276018
     39          8           0       -9.710319   -3.032135    9.322862
     40          8           0       -6.365386    3.423787    8.670408
     41          8           0       -2.988534   -6.472959    8.760240
     42          8           0       -1.793795    0.767171    7.475237
     43          8           0       -7.608185   -3.882858    7.549561
     44          8           0       -4.512443    2.213702   10.432765
     45          8           0       -4.871431   -5.220522   10.522719
     46          8           0       -1.614077   -3.513099    5.249204
     47          8           0       -7.836937    0.263711    5.176075
     48          8           0       -8.046914   -0.156803   12.745685
     49          8           0       -1.319961   -2.845089   12.768757
     50         74           0       -1.260026   -0.517662    8.837010
     51         74           0       -8.149997   -2.527942    8.874323
     52         74           0       -5.889150    1.852531    9.048834
     53         74           0       -3.483813   -4.898886    9.168584
     54          8           0       -4.223784   -3.100203    6.067173
     55          8           0       -5.165739   -0.047944    6.007961
     56          8           0       -6.176259   -1.994647   11.912743
     57          8           0       -3.173698   -0.966143   11.935654
     58          8           0       -4.367058    1.578715    7.840335
     59          8           0       -5.005981   -4.674922    7.921598
     60          8           0       -2.336091    0.587802   10.082568
     61          8           0       -7.059473   -3.611034   10.135295
     62          8           0       -2.574905   -3.887255    7.865738
     63          8           0       -6.821179    0.784451    7.808532
     64          8           0       -7.833637   -1.173815   10.141775
     65          8           0       -1.573827   -1.851127   10.138710
     66          8           0       -3.368582   -1.144842    8.002887
     67          8           0       -6.031151   -1.953153    8.034237
     68          8           0       -5.122207   -0.198276    9.949499
     69          8           0       -4.242588   -2.832403    9.976633
     70         19           0       -3.218625   -6.139143    5.647107
     71         19           0       -0.114390    0.055982   12.357315
     72         19           0       -9.290428   -2.886028   12.435500
     73         23           0       -4.694230   -1.527573    8.987478
 ---------------------------------------------------------------------

 SCF Done:  E(RwB97XD) =  -7327.70105912     A.U. after   13 cycles

 Alpha  occ. eigenvalues -- -197.29704-130.00186-130.00164-130.00088-101.47820
 Alpha  occ. eigenvalues --  -22.62802 -19.33752 -19.33737 -19.33724 -19.33704
 Alpha  occ. eigenvalues --  -19.30710 -19.30669 -19.30664 -19.30653 -19.30652
 Alpha  occ. eigenvalues --  -19.30641 -19.30638 -19.30597 -19.30512 -19.30350
 Alpha  occ. eigenvalues --  -19.30307 -19.30102 -19.29309 -19.29308 -19.29274
 Alpha  occ. eigenvalues --  -19.29271 -19.29265 -19.29264 -19.29234 -19.29183
 Alpha  occ. eigenvalues --  -19.29180 -19.29158 -19.29131 -19.29131 -19.29120
 Alpha  occ. eigenvalues --  -19.29114 -19.29083 -19.29082 -19.29080 -19.29054
 Alpha  occ. eigenvalues --  -19.29049 -19.28965 -19.28959 -19.28931 -19.28917
 Alpha  occ. eigenvalues --  -19.28811 -19.11762 -19.11754 -19.11745 -13.37593
 Alpha  occ. eigenvalues --  -13.37569 -13.37484 -10.70522 -10.70515 -10.70514
 Alpha  occ. eigenvalues --  -10.70498 -10.70491 -10.70491 -10.70415 -10.70408
 Alpha  occ. eigenvalues --  -10.70404 -10.29886 -10.29369 -10.29319 -10.29128
 Alpha  occ. eigenvalues --  -10.29051 -10.29018 -10.28259 -10.27805  -9.38274
 Alpha  occ. eigenvalues --   -7.13098  -7.13056  -7.13053  -3.23288  -3.23284
 Alpha  occ. eigenvalues --   -3.23271  -3.23268  -3.23266  -3.23257  -3.23223
 Alpha  occ. eigenvalues --   -3.23209  -3.23165  -3.22950  -3.22944  -3.22718
 Alpha  occ. eigenvalues --   -2.91979  -1.94337  -1.94309  -1.94301  -1.87701
 Alpha  occ. eigenvalues --   -1.87646  -1.87628  -1.87579  -1.87463  -1.87458
 Alpha  occ. eigenvalues --   -1.87442  -1.87419  -1.87378  -1.87259  -1.87221
 Alpha  occ. eigenvalues --   -1.87041  -1.86602  -1.86483  -1.86476  -1.86453
 Alpha  occ. eigenvalues --   -1.86432  -1.86399  -1.86319  -1.86307  -1.86286
 Alpha  occ. eigenvalues --   -1.86267  -1.86251  -1.86219  -1.86120  -1.86104
 Alpha  occ. eigenvalues --   -1.86100  -1.86076  -1.86025  -1.85982  -1.85959
 Alpha  occ. eigenvalues --   -1.85900  -1.85873  -1.85777  -1.85660  -1.85611
 Alpha  occ. eigenvalues --   -1.51272  -1.51252  -1.51170  -1.13115  -1.11358
 Alpha  occ. eigenvalues --   -1.11275  -1.11257  -1.08971  -1.08523  -1.08478
 Alpha  occ. eigenvalues --   -1.08270  -1.07569  -1.07515  -1.07500  -1.06891
 Alpha  occ. eigenvalues --   -1.06855  -1.06842  -1.06306  -1.06280  -1.05292
 Alpha  occ. eigenvalues --   -1.05282  -1.04966  -1.04953  -1.04940  -1.04167
 Alpha  occ. eigenvalues --   -1.04164  -1.04146  -1.04001  -1.03978  -1.03962
 Alpha  occ. eigenvalues --   -1.03923  -1.03877  -1.03857  -1.03735  -1.03693
 Alpha  occ. eigenvalues --   -1.03592  -1.03539  -1.03281  -1.03232  -1.03087
 Alpha  occ. eigenvalues --   -1.03073  -1.03016  -1.02928  -0.94429  -0.86731
 Alpha  occ. eigenvalues --   -0.86714  -0.86636  -0.86593  -0.86545  -0.86533
 Alpha  occ. eigenvalues --   -0.86524  -0.86523  -0.86450  -0.86424  -0.82851
 Alpha  occ. eigenvalues --   -0.79865  -0.70965  -0.69809  -0.68090  -0.64576
 Alpha  occ. eigenvalues --   -0.63931  -0.63896  -0.63888  -0.63362  -0.63330
 Alpha  occ. eigenvalues --   -0.63219  -0.63075  -0.62713  -0.62626  -0.62043
 Alpha  occ. eigenvalues --   -0.61621  -0.61606  -0.61515  -0.61212  -0.61192
 Alpha  occ. eigenvalues --   -0.61155  -0.60398  -0.59476  -0.59442  -0.59430
 Alpha  occ. eigenvalues --   -0.59413  -0.59375  -0.58703  -0.57976  -0.57952
 Alpha  occ. eigenvalues --   -0.57877  -0.57104  -0.57069  -0.57034  -0.56292
 Alpha  occ. eigenvalues --   -0.56249  -0.56081  -0.55681  -0.54841  -0.54773
 Alpha  occ. eigenvalues --   -0.54737  -0.54600  -0.54221  -0.54103  -0.54067
 Alpha  occ. eigenvalues --   -0.54015  -0.53948  -0.53206  -0.53169  -0.53042
 Alpha  occ. eigenvalues --   -0.52983  -0.52868  -0.52690  -0.52629  -0.52610
 Alpha  occ. eigenvalues --   -0.52568  -0.52535  -0.52465  -0.52444  -0.51569
 Alpha  occ. eigenvalues --   -0.51545  -0.51361  -0.51322  -0.51293  -0.51237
 Alpha  occ. eigenvalues --   -0.51170  -0.51153  -0.51024  -0.50716  -0.50536
 Alpha  occ. eigenvalues --   -0.50532  -0.50497  -0.49874  -0.49856  -0.49317
 Alpha  occ. eigenvalues --   -0.49265  -0.49239  -0.49183  -0.49141  -0.49041
 Alpha  occ. eigenvalues --   -0.48893  -0.48074  -0.48021  -0.47920  -0.47742
 Alpha  occ. eigenvalues --   -0.47350  -0.47278  -0.47225  -0.47007  -0.46939
 Alpha  occ. eigenvalues --   -0.46820  -0.46548  -0.46475  -0.46449  -0.46221
 Alpha  occ. eigenvalues --   -0.46158  -0.46105  -0.45642  -0.45076  -0.44897
 Alpha  occ. eigenvalues --   -0.44866  -0.44175  -0.44150  -0.44034  -0.43623
 Alpha  occ. eigenvalues --   -0.43279  -0.43225  -0.43102  -0.43081  -0.43042
 Alpha  occ. eigenvalues --   -0.42697  -0.42669  -0.42648  -0.42585  -0.42581
 Alpha  occ. eigenvalues --   -0.42494  -0.42449  -0.42433  -0.42270  -0.42254
 Alpha  occ. eigenvalues --   -0.42228  -0.42004  -0.41891  -0.41837  -0.41820
 Alpha  occ. eigenvalues --   -0.41248  -0.41155  -0.41130  -0.41013  -0.40529
 Alpha  occ. eigenvalues --   -0.40508  -0.40504  -0.40430  -0.39432  -0.39411
 Alpha  occ. eigenvalues --   -0.36972  -0.32567  -0.28929  -0.24670  -0.24649
 Alpha  occ. eigenvalues --   -0.23491
 Alpha virt. eigenvalues --   -0.09658  -0.09448  -0.08446  -0.08396  -0.07001
 Alpha virt. eigenvalues --   -0.06963  -0.06839  -0.04636  -0.04307  -0.04279
 Alpha virt. eigenvalues --   -0.03710  -0.03539  -0.03457  -0.03231  -0.03138

 Mulliken charges:
               1
     1  Cl  -0.926234
     2  C   -0.077268
     3  C    0.042997
     4  C   -0.075613
     5  C   -0.033461
     6  C   -0.031728
     7  C   -0.049823
     8  H    0.029892
     9  H    0.030745
    10  H    0.041510
    11  H    0.037559
    12  H    0.040340
    13  C   -0.105370
    14  C    0.014830
    15  H    0.022614
    16  H    0.042504
    17  H    0.032647
    18  O   -0.663868
    19  O   -0.661506
    20  O   -0.654617
    21  O   -0.662453
    22  W    1.736846
    23  W    1.673948
    24  W    1.683466
    25  W    1.694196
    26  W    1.677281
    27  W    1.729084
    28  W    1.621342
    29  W    1.685561
    30  O   -0.320456
    31  O   -0.365305
    32  O   -0.366183
    33  O   -0.361729
    34  O   -0.665809
    35  O   -0.670982
    36  O   -0.662118
    37  O   -0.664296
    38  O   -0.367265
    39  O   -0.365492
    40  O   -0.295279
    41  O   -0.365065
    42  O   -0.670225
    43  O   -0.663623
    44  O   -0.660704
    45  O   -0.665946
    46  O   -0.368284
    47  O   -0.320941
    48  O   -0.357978
    49  O   -0.363007
    50  W    1.674114
    51  W    1.677734
    52  W    1.684052
    53  W    1.685067
    54  O   -0.724086
    55  O   -0.708388
    56  O   -0.726308
    57  O   -0.722393
    58  O   -0.708364
    59  O   -0.727110
    60  O   -0.725169
    61  O   -0.721324
    62  O   -0.725044
    63  O   -0.709924
    64  O   -0.723788
    65  O   -0.726879
    66  O   -0.803633
    67  O   -0.802119
    68  O   -0.800142
    69  O   -0.809173
    70  K    0.865952
    71  K    0.866789
    72  K    0.863192
    73  V    1.192208
 Sum of Mulliken charges =  -1.00000

 Dipole moment (field-independent basis, Debye):
    X=             51.5453    Y=            -51.7272    Z=            -38.5483  Tot=             82.5748
 Quadrupole moment (field-independent basis, Debye-Ang):
   XX=          -1063.8330   YY=           -887.5306   ZZ=           -910.5200
   XY=            460.5754   XZ=            462.1328   YZ=           -483.2900

 Normal termination of Gaussian 16 at Sun Jun  2 07:24:19 2024.
