 Gaussian 16, Revision C.01,
 Gaussian 16:  ES64L-G16RevC.01  3-Jul-2019

 ----------------------------------------------------------------------
 # def2svp wb97xd scrf=(smd,solvent=acetonitrile) g09default scf=(xqc,m
 axcycle=64) force guess=read nosymm
 ----------------------------------------------------------------------

 ----------
 Title Card
 ----------
 Symbolic Z-matrix:
 Charge = -1 Multiplicity = 1

                          Input orientation:
 ---------------------------------------------------------------------
 Center     Atomic      Atomic             Coordinates (Angstroms)
 Number     Number       Type             X           Y           Z
 ---------------------------------------------------------------------
      1         17           0       -9.866017    8.173230   10.540928
      2          6           0       -8.323140    4.234484   12.225283
      3          6           0       -9.103383    3.917404   11.098712
      4          6           0      -10.024986    2.859308   11.206073
      5          6           0      -10.199312    2.179051   12.407097
      6          6           0       -9.444541    2.532518   13.526620
      7          6           0       -8.493379    3.550250   13.424852
      8          1           0       -7.570779    5.023267   12.161170
      9          1           0      -10.608146    2.571653   10.326448
     10          1           0      -10.918103    1.358182   12.469269
     11          1           0       -9.579439    1.999874   14.470653
     12          1           0       -7.875119    3.809034   14.288178
     13          6           0       -8.998784    4.645041    9.832351
     14          6           0       -8.243433    5.734185    9.585312
     15          1           0       -9.620351    4.252226    9.020195
     16          1           0       -8.205076    6.155782    8.578775
     17          1           0       -7.578133    6.181632   10.326134
     18          8           0       -0.990729   -1.777334    7.462611
     19          8           0       -8.409507   -1.333232    7.461111
     20          8           0       -7.039700    1.347217   10.477887
     21          8           0       -2.332136   -4.372740   10.554537
     22         74           0       -3.413229    0.705465    6.478791
     23         74           0       -6.001833   -3.820711    6.569749
     24         74           0       -3.624740    0.894119   11.419832
     25         74           0       -5.768709   -3.859087   11.473746
     26         74           0       -2.448542   -2.573666    6.395339
     27         74           0       -6.945510   -0.536048    6.366265
     28         74           0       -6.826012   -0.247373   11.568819
     29         74           0       -2.556671   -2.711689   11.610991
     30          8           0       -3.173490    1.896692    5.307143
     31          8           0       -6.142101   -5.069727    5.426729
     32          8           0       -2.712235    1.745349   12.573942
     33          8           0       -6.673862   -4.671633   12.659205
     34          8           0       -2.671179   -0.894906    5.582122
     35          8           0       -6.713827   -2.269293    5.623614
     36          8           0       -5.320400    0.560491   12.363505
     37          8           0       -4.055755   -3.519919   12.404869
     38          8           0        0.298310    0.001107    9.276018
     39          8           0       -9.710319   -3.032135    9.322862
     40          8           0       -6.365386    3.423787    8.670408
     41          8           0       -2.988534   -6.472959    8.760240
     42          8           0       -1.793795    0.767171    7.475237
     43          8           0       -7.608185   -3.882858    7.549561
     44          8           0       -4.512443    2.213702   10.432765
     45          8           0       -4.871431   -5.220522   10.522719
     46          8           0       -1.614077   -3.513099    5.249204
     47          8           0       -7.836937    0.263711    5.176075
     48          8           0       -8.046914   -0.156803   12.745685
     49          8           0       -1.319961   -2.845089   12.768757
     50         74           0       -1.260026   -0.517662    8.837010
     51         74           0       -8.149997   -2.527942    8.874323
     52         74           0       -5.889150    1.852531    9.048834
     53         74           0       -3.483813   -4.898886    9.168584
     54          8           0       -4.223784   -3.100203    6.067173
     55          8           0       -5.165739   -0.047944    6.007961
     56          8           0       -6.176259   -1.994647   11.912743
     57          8           0       -3.173698   -0.966143   11.935654
     58          8           0       -4.367058    1.578715    7.840335
     59          8           0       -5.005981   -4.674922    7.921598
     60          8           0       -2.336091    0.587802   10.082568
     61          8           0       -7.059473   -3.611034   10.135295
     62          8           0       -2.574905   -3.887255    7.865738
     63          8           0       -6.821179    0.784451    7.808532
     64          8           0       -7.833637   -1.173815   10.141775
     65          8           0       -1.573827   -1.851127   10.138710
     66          8           0       -3.368582   -1.144842    8.002887
     67          8           0       -6.031151   -1.953153    8.034237
     68          8           0       -5.122207   -0.198276    9.949499
     69          8           0       -4.242588   -2.832403    9.976633
     70         19           0       -3.218625   -6.139143    5.647107
     71         19           0       -0.114390    0.055982   12.357315
     72         19           0       -9.290428   -2.886028   12.435500
     73         23           0       -4.694230   -1.527573    8.987478
 ---------------------------------------------------------------------

 SCF Done:  E(UwB97XD) =  -7327.70106944     A.U. after   27 cycles

 Alpha  occ. eigenvalues --  -19.24798 -18.94455 -18.93367 -18.93331 -13.36632
 Alpha  occ. eigenvalues --  -13.36563 -13.36562 -10.69559 -10.69555 -10.69553
 Alpha  occ. eigenvalues --  -10.69490 -10.69489 -10.69486 -10.69485 -10.69484
 Alpha  occ. eigenvalues --  -10.69481 -10.32805 -10.32050 -10.31814 -10.30888
 Alpha  occ. eigenvalues --  -10.30879 -10.30869 -10.30489 -10.30421  -9.52966
 Alpha  occ. eigenvalues --   -7.27857  -7.27496  -7.27492  -3.21084  -3.21043
 Alpha  occ. eigenvalues --   -3.21041  -3.21033  -3.21012  -3.20995  -3.20985
 Alpha  occ. eigenvalues --   -3.20983  -3.20975  -3.20861  -3.20826  -3.20805
 Alpha  occ. eigenvalues --   -2.79073  -1.85314  -1.85278  -1.85260  -1.85233
 Alpha  occ. eigenvalues --   -1.85106  -1.85058  -1.85042  -1.85020  -1.85005
 Alpha  occ. eigenvalues --   -1.84996  -1.84978  -1.84918  -1.84365  -1.84255
 Alpha  occ. eigenvalues --   -1.84238  -1.84233  -1.84195  -1.84187  -1.84121
 Alpha  occ. eigenvalues --   -1.84107  -1.84084  -1.84074  -1.84053  -1.84038
 Alpha  occ. eigenvalues --   -1.83920  -1.83889  -1.83869  -1.83864  -1.83830
 Alpha  occ. eigenvalues --   -1.83799  -1.83778  -1.83776  -1.83762  -1.83664
 Alpha  occ. eigenvalues --   -1.83653  -1.83646  -1.82204  -1.81873  -1.81846
 Alpha  occ. eigenvalues --   -1.50325  -1.50261  -1.50259  -1.08625  -1.06996
 Alpha  occ. eigenvalues --   -1.06950  -1.06923  -1.06011  -1.05989  -1.05946
 Alpha  occ. eigenvalues --   -1.04571  -1.04546  -1.04541  -1.03973  -1.03961
 Alpha  occ. eigenvalues --   -1.03775  -1.03369  -1.03344  -1.03316  -1.03018
 Alpha  occ. eigenvalues --   -1.02985  -1.02265  -1.02245  -1.02216  -1.02052
 Alpha  occ. eigenvalues --   -1.01991  -1.01956  -1.01893  -1.01865  -1.01764
 Alpha  occ. eigenvalues --   -1.01731  -1.01721  -1.01606  -1.01573  -1.01543
 Alpha  occ. eigenvalues --   -1.01280  -1.00823  -1.00732  -1.00687  -1.00681
 Alpha  occ. eigenvalues --   -1.00072  -1.00005  -0.99950  -0.96078  -0.89122
 Alpha  occ. eigenvalues --   -0.85759  -0.85702  -0.85696  -0.85613  -0.85599
 Alpha  occ. eigenvalues --   -0.85556  -0.85545  -0.85542  -0.85525  -0.84177
 Alpha  occ. eigenvalues --   -0.82295  -0.81242  -0.71814  -0.69547  -0.64960
 Alpha  occ. eigenvalues --   -0.62303  -0.61673  -0.61652  -0.61622  -0.60497
 Alpha  occ. eigenvalues --   -0.58958  -0.58933  -0.58920  -0.58860  -0.58804
 Alpha  occ. eigenvalues --   -0.58779  -0.58748  -0.58708  -0.58544  -0.57407
 Alpha  occ. eigenvalues --   -0.57372  -0.57345  -0.57058  -0.56630  -0.56501
 Alpha  occ. eigenvalues --   -0.56457  -0.56415  -0.56049  -0.55895  -0.55363
 Alpha  occ. eigenvalues --   -0.55348  -0.55323  -0.54351  -0.54163  -0.54143
 Alpha  occ. eigenvalues --   -0.53937  -0.53717  -0.53672  -0.53649  -0.52678
 Alpha  occ. eigenvalues --   -0.52583  -0.52578  -0.52472  -0.52429  -0.51465
 Alpha  occ. eigenvalues --   -0.51451  -0.51448  -0.51360  -0.51294  -0.50676
 Alpha  occ. eigenvalues --   -0.50526  -0.50516  -0.50459  -0.50363  -0.50256
 Alpha  occ. eigenvalues --   -0.50222  -0.50048  -0.49990  -0.49979  -0.49709
 Alpha  occ. eigenvalues --   -0.49624  -0.49576  -0.49482  -0.49445  -0.49294
 Alpha  occ. eigenvalues --   -0.49260  -0.49204  -0.49124  -0.49080  -0.49008
 Alpha  occ. eigenvalues --   -0.48653  -0.48501  -0.48461  -0.48423  -0.47660
 Alpha  occ. eigenvalues --   -0.47628  -0.47124  -0.46477  -0.46041  -0.46010
 Alpha  occ. eigenvalues --   -0.45871  -0.45755  -0.45689  -0.45586  -0.45193
 Alpha  occ. eigenvalues --   -0.45139  -0.45123  -0.44785  -0.44598  -0.44488
 Alpha  occ. eigenvalues --   -0.44472  -0.44446  -0.44289  -0.44200  -0.44174
 Alpha  occ. eigenvalues --   -0.43480  -0.42994  -0.42557  -0.42509  -0.42445
 Alpha  occ. eigenvalues --   -0.42332  -0.42188  -0.42176  -0.42061  -0.41630
 Alpha  occ. eigenvalues --   -0.41617  -0.41569  -0.41014  -0.40971  -0.40776
 Alpha  occ. eigenvalues --   -0.40743  -0.40734  -0.40376  -0.40360  -0.40309
 Alpha  occ. eigenvalues --   -0.40193  -0.40166  -0.40137  -0.40111  -0.39841
 Alpha  occ. eigenvalues --   -0.39354  -0.39277  -0.39266  -0.39137  -0.39085
 Alpha  occ. eigenvalues --   -0.38907  -0.38888  -0.38827  -0.38792  -0.38708
 Alpha  occ. eigenvalues --   -0.38290  -0.38261  -0.38226  -0.37858  -0.37192
 Alpha  occ. eigenvalues --   -0.37176  -0.34997  -0.34982  -0.33571  -0.29893
 Alpha  occ. eigenvalues --   -0.26066
 Alpha virt. eigenvalues --   -0.12486  -0.06320  -0.06278  -0.04852  -0.04796
 Alpha virt. eigenvalues --   -0.04665  -0.01522  -0.01402  -0.01336  -0.01121
 Alpha virt. eigenvalues --   -0.00919  -0.00910  -0.00859  -0.00130  -0.00074

  Beta  occ. eigenvalues -- -197.11220-129.99220-129.99159-129.99151-101.62974
  Beta  occ. eigenvalues --  -22.43611 -19.28509 -19.28491 -19.28453 -19.28372
  Beta  occ. eigenvalues --  -19.28368 -19.28347 -19.28336 -19.28332 -19.28313
  Beta  occ. eigenvalues --  -19.28257 -19.28202 -19.28121 -19.26928 -19.26892
  Beta  occ. eigenvalues --  -19.26881 -19.26875 -19.26854 -19.26849 -19.26830
  Beta  occ. eigenvalues --  -19.26830 -19.26810 -19.26784 -19.26774 -19.26767
  Beta  occ. eigenvalues --  -19.26766 -19.26765 -19.26754 -19.26745 -19.26741
  Beta  occ. eigenvalues --  -19.26741 -19.26733 -19.26725 -19.26719 -19.26709
  Beta  occ. eigenvalues --  -19.26651 -19.26592 -19.24868 -19.24836 -19.24803
  Beta  occ. eigenvalues --  -19.24773 -18.94109 -18.91920 -18.91848 -13.36632
  Beta  occ. eigenvalues --  -13.36563 -13.36562 -10.69559 -10.69555 -10.69553
  Beta  occ. eigenvalues --  -10.69490 -10.69489 -10.69486 -10.69485 -10.69484
  Beta  occ. eigenvalues --  -10.69481 -10.33036 -10.32191 -10.31774 -10.30996
  Beta  occ. eigenvalues --  -10.30969 -10.30956 -10.30439 -10.30370  -9.53430
  Beta  occ. eigenvalues --   -7.29322  -7.27814  -7.27810  -3.21084  -3.21041
  Beta  occ. eigenvalues --   -3.21037  -3.21033  -3.21007  -3.20989  -3.20979
  Beta  occ. eigenvalues --   -3.20977  -3.20969  -3.20861  -3.20822  -3.20800
  Beta  occ. eigenvalues --   -2.75002  -1.85310  -1.85273  -1.85255  -1.85225
  Beta  occ. eigenvalues --   -1.85100  -1.85053  -1.85036  -1.85014  -1.84998
  Beta  occ. eigenvalues --   -1.84987  -1.84973  -1.84909  -1.84363  -1.84253
  Beta  occ. eigenvalues --   -1.84235  -1.84230  -1.84193  -1.84184  -1.84118
  Beta  occ. eigenvalues --   -1.84106  -1.84081  -1.84071  -1.84051  -1.84035
  Beta  occ. eigenvalues --   -1.83918  -1.83886  -1.83866  -1.83861  -1.83828
  Beta  occ. eigenvalues --   -1.83796  -1.83775  -1.83773  -1.83759  -1.83661
  Beta  occ. eigenvalues --   -1.83651  -1.83643  -1.80859  -1.76177  -1.76016
  Beta  occ. eigenvalues --   -1.50325  -1.50261  -1.50259  -1.08608  -1.06977
  Beta  occ. eigenvalues --   -1.06926  -1.06895  -1.06009  -1.05986  -1.05945
  Beta  occ. eigenvalues --   -1.04572  -1.04545  -1.04541  -1.03972  -1.03963
  Beta  occ. eigenvalues --   -1.03708  -1.03335  -1.03303  -1.03278  -1.03018
  Beta  occ. eigenvalues --   -1.02978  -1.02244  -1.02222  -1.02199  -1.02044
  Beta  occ. eigenvalues --   -1.01986  -1.01944  -1.01889  -1.01852  -1.01761
  Beta  occ. eigenvalues --   -1.01728  -1.01718  -1.01604  -1.01571  -1.01527
  Beta  occ. eigenvalues --   -1.01280  -1.00786  -1.00732  -1.00686  -1.00681
  Beta  occ. eigenvalues --   -0.99940  -0.99884  -0.99831  -0.96278  -0.89728
  Beta  occ. eigenvalues --   -0.85759  -0.85702  -0.85696  -0.85612  -0.85599
  Beta  occ. eigenvalues --   -0.85556  -0.85545  -0.85542  -0.85525  -0.84884
  Beta  occ. eigenvalues --   -0.84269  -0.82641  -0.72052  -0.69657  -0.65178
  Beta  occ. eigenvalues --   -0.62302  -0.61672  -0.61652  -0.61622  -0.60676
  Beta  occ. eigenvalues --   -0.58946  -0.58931  -0.58918  -0.58789  -0.58774
  Beta  occ. eigenvalues --   -0.58740  -0.58724  -0.58660  -0.58544  -0.57375
  Beta  occ. eigenvalues --   -0.57219  -0.57177  -0.57004  -0.56799  -0.56504
  Beta  occ. eigenvalues --   -0.56424  -0.56379  -0.55851  -0.55639  -0.55346
  Beta  occ. eigenvalues --   -0.55329  -0.55325  -0.54516  -0.54156  -0.54132
  Beta  occ. eigenvalues --   -0.53925  -0.53676  -0.53652  -0.53609  -0.52715
  Beta  occ. eigenvalues --   -0.52617  -0.52566  -0.52452  -0.52421  -0.51446
  Beta  occ. eigenvalues --   -0.51433  -0.51425  -0.51285  -0.51230  -0.50824
  Beta  occ. eigenvalues --   -0.50483  -0.50462  -0.50411  -0.50306  -0.50213
  Beta  occ. eigenvalues --   -0.50138  -0.50017  -0.49984  -0.49956  -0.49655
  Beta  occ. eigenvalues --   -0.49599  -0.49549  -0.49474  -0.49434  -0.49294
  Beta  occ. eigenvalues --   -0.49236  -0.49203  -0.49092  -0.49066  -0.48985
  Beta  occ. eigenvalues --   -0.48647  -0.48507  -0.48456  -0.48414  -0.47762
  Beta  occ. eigenvalues --   -0.47593  -0.47540  -0.45904  -0.45893  -0.45808
  Beta  occ. eigenvalues --   -0.45794  -0.45666  -0.45554  -0.45194  -0.45161
  Beta  occ. eigenvalues --   -0.45128  -0.45047  -0.44785  -0.44597  -0.44472
  Beta  occ. eigenvalues --   -0.44421  -0.44411  -0.44276  -0.44180  -0.44156
  Beta  occ. eigenvalues --   -0.43475  -0.43087  -0.42497  -0.42470  -0.42400
  Beta  occ. eigenvalues --   -0.42263  -0.42152  -0.42141  -0.42129  -0.41610
  Beta  occ. eigenvalues --   -0.41598  -0.41546  -0.41273  -0.41020  -0.40924
  Beta  occ. eigenvalues --   -0.40746  -0.40707  -0.40643  -0.40361  -0.40348
  Beta  occ. eigenvalues --   -0.40290  -0.40151  -0.40124  -0.40110  -0.39784
  Beta  occ. eigenvalues --   -0.39632  -0.39356  -0.39168  -0.39116  -0.39096
  Beta  occ. eigenvalues --   -0.38901  -0.38864  -0.38840  -0.38798  -0.38734
  Beta  occ. eigenvalues --   -0.38686  -0.38292  -0.38257  -0.38224  -0.37980
  Beta  occ. eigenvalues --   -0.37194  -0.37171  -0.35978  -0.35964  -0.33814
  Beta  occ. eigenvalues --   -0.30823
  Beta virt. eigenvalues --   -0.06319  -0.06278  -0.04851  -0.04795  -0.04664
  Beta virt. eigenvalues --   -0.01517  -0.01398  -0.01330  -0.01115  -0.00914
  Beta virt. eigenvalues --   -0.00905  -0.00855  -0.00119  -0.00060  -0.00025

 Mulliken charges and spin densities:
               1          2
     1  Cl  -0.334736  -0.636624
     2  C   -0.036852  -0.083173
     3  C    0.014425   0.045830
     4  C   -0.035735  -0.079362
     5  C   -0.031158   0.050988
     6  C    0.005953  -0.101867
     7  C   -0.048307   0.050949
     8  H    0.048221   0.003627
     9  H    0.050008   0.003421
    10  H    0.054904  -0.001796
    11  H    0.055675   0.004476
    12  H    0.053548  -0.001774
    13  C    0.000576  -0.211448
    14  C   -0.041977  -0.055015
    15  H    0.072853   0.008980
    16  H    0.094662   0.003341
    17  H    0.088459   0.002068
    18  O   -0.672772  -0.000577
    19  O   -0.670445  -0.000516
    20  O   -0.665918  -0.001739
    21  O   -0.671553  -0.000535
    22  W    1.720466   0.000364
    23  W    1.659847   0.000495
    24  W    1.671161   0.000193
    25  W    1.680507   0.000204
    26  W    1.663754   0.002685
    27  W    1.711612   0.002442
    28  W    1.612933   0.003259
    29  W    1.671397   0.002834
    30  O   -0.350354  -0.000543
    31  O   -0.393710  -0.000563
    32  O   -0.394572  -0.000614
    33  O   -0.390492  -0.000561
    34  O   -0.674259  -0.000311
    35  O   -0.678499  -0.000067
    36  O   -0.671145  -0.000140
    37  O   -0.673230  -0.000239
    38  O   -0.396979   0.001999
    39  O   -0.395488   0.002020
    40  O   -0.339676  -0.000427
    41  O   -0.395088   0.001995
    42  O   -0.678057   0.000082
    43  O   -0.672332   0.000164
    44  O   -0.669412   0.000297
    45  O   -0.674442   0.000113
    46  O   -0.398237   0.002319
    47  O   -0.352692   0.002233
    48  O   -0.390811   0.001842
    49  O   -0.393196   0.002405
    50  W    1.660062   0.002648
    51  W    1.663500   0.002540
    52  W    1.677938   0.003652
    53  W    1.670634   0.002466
    54  O   -0.722161   0.000096
    55  O   -0.706977   0.000009
    56  O   -0.723028   0.000162
    57  O   -0.720829   0.000054
    58  O   -0.705941   0.000013
    59  O   -0.724348   0.000141
    60  O   -0.722716   0.000192
    61  O   -0.719129   0.000185
    62  O   -0.723486  -0.000173
    63  O   -0.708490  -0.000028
    64  O   -0.722789  -0.000196
    65  O   -0.724707  -0.000208
    66  O   -0.886317   0.004875
    67  O   -0.885574   0.007088
    68  O   -0.883610   0.006880
    69  O   -0.889518   0.006434
    70  K    0.852496   0.000183
    71  K    0.853658   0.000200
    72  K    0.849673   0.000218
    73  V    1.202821   0.938838
 Sum of Mulliken charges =  -1.00000   0.00000

 Dipole moment (field-independent basis, Debye):
    X=             28.9497    Y=            -13.7512    Z=            -30.5326  Tot=             44.2653
 Quadrupole moment (field-independent basis, Debye-Ang):
   XX=           -771.8716   YY=           -704.2527   ZZ=           -778.0363
   XY=            130.6358   XZ=            182.4275   YZ=            -93.7691

 Normal termination of Gaussian 16 at Sun Jun  2 07:13:03 2024.
