 Gaussian 16, Revision C.01,
 Gaussian 16:  ES64L-G16RevC.01  3-Jul-2019

 ----------------------------------------------------------------------
 # def2svp wb97xd scrf=(smd,solvent=acetonitrile) g09default scf=(xqc,m
 axcycle=64) force guess=read nosymm
 ----------------------------------------------------------------------

 ----------
 Title Card
 ----------
 Symbolic Z-matrix:
 Charge = -1 Multiplicity = 1

                          Input orientation:
 ---------------------------------------------------------------------
 Center     Atomic      Atomic             Coordinates (Angstroms)
 Number     Number       Type             X           Y           Z
 ---------------------------------------------------------------------
      1         17           0       -9.848041    8.192983   10.545357
      2          6           0       -8.324656    4.234454   12.224437
      3          6           0       -9.107071    3.918471   11.099022
      4          6           0      -10.027034    2.858557   11.206831
      5          6           0      -10.200252    2.178578   12.408419
      6          6           0       -9.445734    2.533580   13.527718
      7          6           0       -8.493864    3.550563   13.424249
      8          1           0       -7.570852    5.021909   12.159054
      9          1           0      -10.610037    2.569507   10.327912
     10          1           0      -10.917626    1.356751   12.470863
     11          1           0       -9.580725    2.002081   14.472305
     12          1           0       -7.873803    3.808503   14.286522
     13          6           0       -9.006736    4.648183    9.833596
     14          6           0       -8.259815    5.743600    9.587478
     15          1           0       -9.623707    4.250621    9.020046
     16          1           0       -8.222444    6.163823    8.580352
     17          1           0       -7.599373    6.197271   10.328743
     18          8           0       -0.988863   -1.779454    7.463391
     19          8           0       -8.408509   -1.333654    7.461092
     20          8           0       -7.038043    1.347266   10.476790
     21          8           0       -2.332463   -4.375140   10.554042
     22         74           0       -3.412528    0.702428    6.477697
     23         74           0       -6.000484   -3.820052    6.568246
     24         74           0       -3.623353    0.891226   11.420762
     25         74           0       -5.767781   -3.858661   11.474337
     26         74           0       -2.445937   -2.576665    6.396335
     27         74           0       -6.945646   -0.535530    6.367648
     28         74           0       -6.826081   -0.247302   11.567211
     29         74           0       -2.554479   -2.713952   11.609394
     30          8           0       -3.172641    1.892791    5.304921
     31          8           0       -6.140065   -5.069370    5.425690
     32          8           0       -2.709994    1.741656   12.574406
     33          8           0       -6.674238   -4.669724   12.659966
     34          8           0       -2.668911   -0.897954    5.582316
     35          8           0       -6.712788   -2.268833    5.623408
     36          8           0       -5.319816    0.559343   12.363050
     37          8           0       -4.054725   -3.520552   12.404247
     38          8           0        0.299191    0.000387    9.277592
     39          8           0       -9.709087   -3.033488    9.323830
     40          8           0       -6.362598    3.424696    8.671179
     41          8           0       -2.990899   -6.475387    8.759102
     42          8           0       -1.792623    0.765388    7.475137
     43          8           0       -7.606981   -3.883268    7.548885
     44          8           0       -4.510094    2.211934   10.432488
     45          8           0       -4.872357   -5.221416   10.522662
     46          8           0       -1.612232   -3.518102    5.251232
     47          8           0       -7.836201    0.265480    5.177385
     48          8           0       -8.047947   -0.157999   12.743327
     49          8           0       -1.317088   -2.846642   12.766787
     50         74           0       -1.258973   -0.518281    8.836756
     51         74           0       -8.148300   -2.529585    8.874168
     52         74           0       -5.885880    1.853510    9.048512
     53         74           0       -3.485288   -4.901220    9.168072
     54          8           0       -4.221983   -3.101498    6.067175
     55          8           0       -5.164520   -0.049485    6.008346
     56          8           0       -6.175769   -1.994543   11.911743
     57          8           0       -3.172413   -0.968127   11.935330
     58          8           0       -4.365454    1.578818    7.838721
     59          8           0       -5.005722   -4.675315    7.921217
     60          8           0       -2.334977    0.585821   10.082637
     61          8           0       -7.058379   -3.611267   10.134788
     62          8           0       -2.574033   -3.889993    7.865852
     63          8           0       -6.819404    0.785400    7.808075
     64          8           0       -7.832787   -1.174129   10.140825
     65          8           0       -1.572685   -1.852769   10.138361
     66          8           0       -3.366910   -1.146462    8.002516
     67          8           0       -6.030491   -1.953652    8.033981
     68          8           0       -5.121307   -0.198778    9.948924
     69          8           0       -4.241577   -2.833828    9.976153
     70         19           0       -3.217444   -6.139335    5.646324
     71         19           0       -0.112386    0.056611   12.356408
     72         19           0       -9.290953   -2.880568   12.436407
     73         23           0       -4.693110   -1.528619    8.987132
 ---------------------------------------------------------------------

 SCF Done:  E(RwB97XD) =  -7327.70114243     A.U. after   13 cycles

 Alpha  occ. eigenvalues -- -197.29720-130.00181-130.00157-130.00077-101.47857
 Alpha  occ. eigenvalues --  -22.62816 -19.33756 -19.33742 -19.33731 -19.33703
 Alpha  occ. eigenvalues --  -19.30717 -19.30669 -19.30667 -19.30652 -19.30652
 Alpha  occ. eigenvalues --  -19.30650 -19.30642 -19.30589 -19.30514 -19.30352
 Alpha  occ. eigenvalues --  -19.30310 -19.30116 -19.29311 -19.29307 -19.29278
 Alpha  occ. eigenvalues --  -19.29270 -19.29267 -19.29266 -19.29234 -19.29183
 Alpha  occ. eigenvalues --  -19.29181 -19.29157 -19.29134 -19.29131 -19.29121
 Alpha  occ. eigenvalues --  -19.29114 -19.29087 -19.29080 -19.29077 -19.29056
 Alpha  occ. eigenvalues --  -19.29047 -19.28966 -19.28962 -19.28934 -19.28918
 Alpha  occ. eigenvalues --  -19.28815 -19.11777 -19.11768 -19.11759 -13.37588
 Alpha  occ. eigenvalues --  -13.37562 -13.37474 -10.70517 -10.70510 -10.70509
 Alpha  occ. eigenvalues --  -10.70491 -10.70484 -10.70483 -10.70404 -10.70397
 Alpha  occ. eigenvalues --  -10.70393 -10.29895 -10.29370 -10.29322 -10.29130
 Alpha  occ. eigenvalues --  -10.29055 -10.29021 -10.28264 -10.27810  -9.38311
 Alpha  occ. eigenvalues --   -7.13136  -7.13093  -7.13090  -3.23293  -3.23289
 Alpha  occ. eigenvalues --   -3.23276  -3.23273  -3.23270  -3.23260  -3.23230
 Alpha  occ. eigenvalues --   -3.23215  -3.23170  -3.22957  -3.22952  -3.22728
 Alpha  occ. eigenvalues --   -2.91988  -1.94344  -1.94315  -1.94308  -1.87703
 Alpha  occ. eigenvalues --   -1.87648  -1.87632  -1.87586  -1.87466  -1.87459
 Alpha  occ. eigenvalues --   -1.87444  -1.87419  -1.87384  -1.87261  -1.87224
 Alpha  occ. eigenvalues --   -1.87053  -1.86606  -1.86487  -1.86480  -1.86457
 Alpha  occ. eigenvalues --   -1.86437  -1.86404  -1.86324  -1.86312  -1.86291
 Alpha  occ. eigenvalues --   -1.86272  -1.86256  -1.86224  -1.86124  -1.86108
 Alpha  occ. eigenvalues --   -1.86104  -1.86081  -1.86029  -1.85988  -1.85964
 Alpha  occ. eigenvalues --   -1.85905  -1.85880  -1.85783  -1.85668  -1.85619
 Alpha  occ. eigenvalues --   -1.51267  -1.51245  -1.51160  -1.13117  -1.11360
 Alpha  occ. eigenvalues --   -1.11278  -1.11262  -1.08973  -1.08527  -1.08482
 Alpha  occ. eigenvalues --   -1.08272  -1.07571  -1.07518  -1.07502  -1.06894
 Alpha  occ. eigenvalues --   -1.06858  -1.06845  -1.06309  -1.06285  -1.05294
 Alpha  occ. eigenvalues --   -1.05282  -1.04968  -1.04955  -1.04943  -1.04168
 Alpha  occ. eigenvalues --   -1.04165  -1.04149  -1.04004  -1.03980  -1.03963
 Alpha  occ. eigenvalues --   -1.03923  -1.03881  -1.03858  -1.03736  -1.03693
 Alpha  occ. eigenvalues --   -1.03593  -1.03539  -1.03281  -1.03232  -1.03091
 Alpha  occ. eigenvalues --   -1.03076  -1.03016  -1.02936  -0.94426  -0.86727
 Alpha  occ. eigenvalues --   -0.86707  -0.86627  -0.86591  -0.86541  -0.86528
 Alpha  occ. eigenvalues --   -0.86518  -0.86515  -0.86441  -0.86414  -0.82850
 Alpha  occ. eigenvalues --   -0.79868  -0.71003  -0.69805  -0.68092  -0.64581
 Alpha  occ. eigenvalues --   -0.63936  -0.63901  -0.63894  -0.63362  -0.63330
 Alpha  occ. eigenvalues --   -0.63218  -0.63073  -0.62714  -0.62626  -0.62046
 Alpha  occ. eigenvalues --   -0.61624  -0.61609  -0.61518  -0.61218  -0.61198
 Alpha  occ. eigenvalues --   -0.61158  -0.60400  -0.59481  -0.59447  -0.59435
 Alpha  occ. eigenvalues --   -0.59418  -0.59378  -0.58697  -0.57977  -0.57955
 Alpha  occ. eigenvalues --   -0.57877  -0.57106  -0.57069  -0.57035  -0.56295
 Alpha  occ. eigenvalues --   -0.56253  -0.56084  -0.55682  -0.54843  -0.54775
 Alpha  occ. eigenvalues --   -0.54739  -0.54598  -0.54222  -0.54104  -0.54067
 Alpha  occ. eigenvalues --   -0.54014  -0.53948  -0.53207  -0.53171  -0.53043
 Alpha  occ. eigenvalues --   -0.52986  -0.52871  -0.52690  -0.52632  -0.52614
 Alpha  occ. eigenvalues --   -0.52572  -0.52538  -0.52468  -0.52447  -0.51571
 Alpha  occ. eigenvalues --   -0.51546  -0.51359  -0.51321  -0.51289  -0.51234
 Alpha  occ. eigenvalues --   -0.51171  -0.51157  -0.51021  -0.50718  -0.50534
 Alpha  occ. eigenvalues --   -0.50532  -0.50504  -0.49873  -0.49854  -0.49319
 Alpha  occ. eigenvalues --   -0.49270  -0.49239  -0.49187  -0.49143  -0.49042
 Alpha  occ. eigenvalues --   -0.48893  -0.48075  -0.48022  -0.47923  -0.47747
 Alpha  occ. eigenvalues --   -0.47353  -0.47278  -0.47226  -0.47007  -0.46937
 Alpha  occ. eigenvalues --   -0.46820  -0.46550  -0.46473  -0.46454  -0.46221
 Alpha  occ. eigenvalues --   -0.46158  -0.46106  -0.45642  -0.45077  -0.44900
 Alpha  occ. eigenvalues --   -0.44866  -0.44178  -0.44150  -0.44036  -0.43621
 Alpha  occ. eigenvalues --   -0.43278  -0.43224  -0.43103  -0.43080  -0.43045
 Alpha  occ. eigenvalues --   -0.42697  -0.42668  -0.42648  -0.42583  -0.42581
 Alpha  occ. eigenvalues --   -0.42494  -0.42447  -0.42433  -0.42269  -0.42254
 Alpha  occ. eigenvalues --   -0.42230  -0.42004  -0.41890  -0.41837  -0.41822
 Alpha  occ. eigenvalues --   -0.41248  -0.41153  -0.41130  -0.41011  -0.40530
 Alpha  occ. eigenvalues --   -0.40507  -0.40504  -0.40431  -0.39433  -0.39413
 Alpha  occ. eigenvalues --   -0.36982  -0.32566  -0.28949  -0.24700  -0.24679
 Alpha  occ. eigenvalues --   -0.23515
 Alpha virt. eigenvalues --   -0.09672  -0.09459  -0.08462  -0.08409  -0.07012
 Alpha virt. eigenvalues --   -0.06979  -0.06851  -0.04651  -0.04317  -0.04287
 Alpha virt. eigenvalues --   -0.03715  -0.03541  -0.03462  -0.03238  -0.03147

 Mulliken charges:
               1
     1  Cl  -0.924497
     2  C   -0.077236
     3  C    0.043528
     4  C   -0.075583
     5  C   -0.033501
     6  C   -0.031833
     7  C   -0.049873
     8  H    0.030127
     9  H    0.030673
    10  H    0.041501
    11  H    0.037566
    12  H    0.040393
    13  C   -0.107370
    14  C    0.015051
    15  H    0.022860
    16  H    0.042537
    17  H    0.031768
    18  O   -0.663927
    19  O   -0.661749
    20  O   -0.654731
    21  O   -0.662670
    22  W    1.737141
    23  W    1.674602
    24  W    1.683994
    25  W    1.694823
    26  W    1.677489
    27  W    1.729426
    28  W    1.621446
    29  W    1.686040
    30  O   -0.320514
    31  O   -0.365154
    32  O   -0.366073
    33  O   -0.361683
    34  O   -0.665963
    35  O   -0.671115
    36  O   -0.662259
    37  O   -0.664487
    38  O   -0.367625
    39  O   -0.365945
    40  O   -0.295346
    41  O   -0.365015
    42  O   -0.670306
    43  O   -0.663733
    44  O   -0.661067
    45  O   -0.666019
    46  O   -0.368495
    47  O   -0.320996
    48  O   -0.358528
    49  O   -0.363040
    50  W    1.674588
    51  W    1.678391
    52  W    1.684605
    53  W    1.685488
    54  O   -0.724236
    55  O   -0.708600
    56  O   -0.726355
    57  O   -0.722564
    58  O   -0.708388
    59  O   -0.727279
    60  O   -0.725242
    61  O   -0.721388
    62  O   -0.725153
    63  O   -0.710035
    64  O   -0.723833
    65  O   -0.726949
    66  O   -0.803707
    67  O   -0.802279
    68  O   -0.799860
    69  O   -0.809039
    70  K    0.865676
    71  K    0.866575
    72  K    0.862938
    73  V    1.192013
 Sum of Mulliken charges =  -1.00000

 Dipole moment (field-independent basis, Debye):
    X=             51.4677    Y=            -51.7587    Z=            -38.5635  Tot=             82.5532
 Quadrupole moment (field-independent basis, Debye-Ang):
   XX=          -1062.2311   YY=           -888.7991   ZZ=           -910.7890
   XY=            460.2689   XZ=            461.4780   YZ=           -483.7199

 Normal termination of Gaussian 16 at Sun Jun  2 08:01:50 2024.
