 Gaussian 16, Revision C.01,
 Gaussian 16:  ES64L-G16RevC.01  3-Jul-2019

 ----------------------------------------------------------------------
 # def2svp wb97xd scrf=(smd,solvent=acetonitrile) g09default scf=(xqc,m
 axcycle=64) force guess=read nosymm
 ----------------------------------------------------------------------

 ----------
 Title Card
 ----------
 Symbolic Z-matrix:
 Charge = -1 Multiplicity = 1

                          Input orientation:
 ---------------------------------------------------------------------
 Center     Atomic      Atomic             Coordinates (Angstroms)
 Number     Number       Type             X           Y           Z
 ---------------------------------------------------------------------
      1         17           0       -9.848041    8.192983   10.545357
      2          6           0       -8.324656    4.234454   12.224437
      3          6           0       -9.107071    3.918471   11.099022
      4          6           0      -10.027034    2.858557   11.206831
      5          6           0      -10.200252    2.178578   12.408419
      6          6           0       -9.445734    2.533580   13.527718
      7          6           0       -8.493864    3.550563   13.424249
      8          1           0       -7.570852    5.021909   12.159054
      9          1           0      -10.610037    2.569507   10.327912
     10          1           0      -10.917626    1.356751   12.470863
     11          1           0       -9.580725    2.002081   14.472305
     12          1           0       -7.873803    3.808503   14.286522
     13          6           0       -9.006736    4.648183    9.833596
     14          6           0       -8.259815    5.743600    9.587478
     15          1           0       -9.623707    4.250621    9.020046
     16          1           0       -8.222444    6.163823    8.580352
     17          1           0       -7.599373    6.197271   10.328743
     18          8           0       -0.988863   -1.779454    7.463391
     19          8           0       -8.408509   -1.333654    7.461092
     20          8           0       -7.038043    1.347266   10.476790
     21          8           0       -2.332463   -4.375140   10.554042
     22         74           0       -3.412528    0.702428    6.477697
     23         74           0       -6.000484   -3.820052    6.568246
     24         74           0       -3.623353    0.891226   11.420762
     25         74           0       -5.767781   -3.858661   11.474337
     26         74           0       -2.445937   -2.576665    6.396335
     27         74           0       -6.945646   -0.535530    6.367648
     28         74           0       -6.826081   -0.247302   11.567211
     29         74           0       -2.554479   -2.713952   11.609394
     30          8           0       -3.172641    1.892791    5.304921
     31          8           0       -6.140065   -5.069370    5.425690
     32          8           0       -2.709994    1.741656   12.574406
     33          8           0       -6.674238   -4.669724   12.659966
     34          8           0       -2.668911   -0.897954    5.582316
     35          8           0       -6.712788   -2.268833    5.623408
     36          8           0       -5.319816    0.559343   12.363050
     37          8           0       -4.054725   -3.520552   12.404247
     38          8           0        0.299191    0.000387    9.277592
     39          8           0       -9.709087   -3.033488    9.323830
     40          8           0       -6.362598    3.424696    8.671179
     41          8           0       -2.990899   -6.475387    8.759102
     42          8           0       -1.792623    0.765388    7.475137
     43          8           0       -7.606981   -3.883268    7.548885
     44          8           0       -4.510094    2.211934   10.432488
     45          8           0       -4.872357   -5.221416   10.522662
     46          8           0       -1.612232   -3.518102    5.251232
     47          8           0       -7.836201    0.265480    5.177385
     48          8           0       -8.047947   -0.157999   12.743327
     49          8           0       -1.317088   -2.846642   12.766787
     50         74           0       -1.258973   -0.518281    8.836756
     51         74           0       -8.148300   -2.529585    8.874168
     52         74           0       -5.885880    1.853510    9.048512
     53         74           0       -3.485288   -4.901220    9.168072
     54          8           0       -4.221983   -3.101498    6.067175
     55          8           0       -5.164520   -0.049485    6.008346
     56          8           0       -6.175769   -1.994543   11.911743
     57          8           0       -3.172413   -0.968127   11.935330
     58          8           0       -4.365454    1.578818    7.838721
     59          8           0       -5.005722   -4.675315    7.921217
     60          8           0       -2.334977    0.585821   10.082637
     61          8           0       -7.058379   -3.611267   10.134788
     62          8           0       -2.574033   -3.889993    7.865852
     63          8           0       -6.819404    0.785400    7.808075
     64          8           0       -7.832787   -1.174129   10.140825
     65          8           0       -1.572685   -1.852769   10.138361
     66          8           0       -3.366910   -1.146462    8.002516
     67          8           0       -6.030491   -1.953652    8.033981
     68          8           0       -5.121307   -0.198778    9.948924
     69          8           0       -4.241577   -2.833828    9.976153
     70         19           0       -3.217444   -6.139335    5.646324
     71         19           0       -0.112386    0.056611   12.356408
     72         19           0       -9.290953   -2.880568   12.436407
     73         23           0       -4.693110   -1.528619    8.987132
 ---------------------------------------------------------------------

 SCF Done:  E(UwB97XD) =  -7327.70114776     A.U. after   37 cycles

 Alpha  occ. eigenvalues --  -19.24805 -18.94474 -18.93384 -18.93350 -13.36627
 Alpha  occ. eigenvalues --  -13.36554 -13.36551 -10.69553 -10.69549 -10.69548
 Alpha  occ. eigenvalues --  -10.69480 -10.69478 -10.69477 -10.69476 -10.69474
 Alpha  occ. eigenvalues --  -10.69470 -10.32817 -10.32048 -10.31830 -10.30897
 Alpha  occ. eigenvalues --  -10.30889 -10.30881 -10.30495 -10.30429  -9.52976
 Alpha  occ. eigenvalues --   -7.27867  -7.27506  -7.27503  -3.21090  -3.21047
 Alpha  occ. eigenvalues --   -3.21046  -3.21035  -3.21016  -3.21000  -3.20989
 Alpha  occ. eigenvalues --   -3.20987  -3.20979  -3.20867  -3.20831  -3.20813
 Alpha  occ. eigenvalues --   -2.79084  -1.85320  -1.85279  -1.85264  -1.85235
 Alpha  occ. eigenvalues --   -1.85110  -1.85059  -1.85042  -1.85021  -1.85008
 Alpha  occ. eigenvalues --   -1.84998  -1.84983  -1.84920  -1.84368  -1.84258
 Alpha  occ. eigenvalues --   -1.84241  -1.84236  -1.84199  -1.84191  -1.84125
 Alpha  occ. eigenvalues --   -1.84111  -1.84088  -1.84078  -1.84057  -1.84042
 Alpha  occ. eigenvalues --   -1.83925  -1.83894  -1.83872  -1.83867  -1.83834
 Alpha  occ. eigenvalues --   -1.83803  -1.83782  -1.83780  -1.83767  -1.83667
 Alpha  occ. eigenvalues --   -1.83658  -1.83651  -1.82213  -1.81881  -1.81855
 Alpha  occ. eigenvalues --   -1.50320  -1.50251  -1.50251  -1.08627  -1.06997
 Alpha  occ. eigenvalues --   -1.06953  -1.06924  -1.06012  -1.05992  -1.05949
 Alpha  occ. eigenvalues --   -1.04573  -1.04548  -1.04542  -1.03975  -1.03965
 Alpha  occ. eigenvalues --   -1.03776  -1.03372  -1.03347  -1.03320  -1.03018
 Alpha  occ. eigenvalues --   -1.02985  -1.02265  -1.02243  -1.02216  -1.02056
 Alpha  occ. eigenvalues --   -1.01990  -1.01956  -1.01893  -1.01865  -1.01765
 Alpha  occ. eigenvalues --   -1.01732  -1.01722  -1.01610  -1.01574  -1.01542
 Alpha  occ. eigenvalues --   -1.01281  -1.00824  -1.00732  -1.00686  -1.00681
 Alpha  occ. eigenvalues --   -1.00072  -1.00005  -0.99953  -0.96081  -0.89125
 Alpha  occ. eigenvalues --   -0.85754  -0.85692  -0.85689  -0.85608  -0.85593
 Alpha  occ. eigenvalues --   -0.85547  -0.85538  -0.85534  -0.85514  -0.84181
 Alpha  occ. eigenvalues --   -0.82307  -0.81251  -0.71819  -0.69553  -0.64966
 Alpha  occ. eigenvalues --   -0.62307  -0.61676  -0.61655  -0.61628  -0.60498
 Alpha  occ. eigenvalues --   -0.58959  -0.58934  -0.58923  -0.58860  -0.58805
 Alpha  occ. eigenvalues --   -0.58784  -0.58752  -0.58712  -0.58546  -0.57407
 Alpha  occ. eigenvalues --   -0.57372  -0.57345  -0.57058  -0.56632  -0.56504
 Alpha  occ. eigenvalues --   -0.56460  -0.56417  -0.56051  -0.55896  -0.55363
 Alpha  occ. eigenvalues --   -0.55348  -0.55323  -0.54362  -0.54162  -0.54141
 Alpha  occ. eigenvalues --   -0.53934  -0.53719  -0.53675  -0.53652  -0.52679
 Alpha  occ. eigenvalues --   -0.52585  -0.52580  -0.52474  -0.52431  -0.51467
 Alpha  occ. eigenvalues --   -0.51451  -0.51446  -0.51356  -0.51291  -0.50681
 Alpha  occ. eigenvalues --   -0.50528  -0.50518  -0.50460  -0.50364  -0.50261
 Alpha  occ. eigenvalues --   -0.50228  -0.50045  -0.49989  -0.49978  -0.49710
 Alpha  occ. eigenvalues --   -0.49622  -0.49575  -0.49482  -0.49445  -0.49294
 Alpha  occ. eigenvalues --   -0.49259  -0.49204  -0.49128  -0.49083  -0.49011
 Alpha  occ. eigenvalues --   -0.48655  -0.48501  -0.48467  -0.48418  -0.47657
 Alpha  occ. eigenvalues --   -0.47625  -0.47123  -0.46476  -0.46040  -0.46011
 Alpha  occ. eigenvalues --   -0.45873  -0.45755  -0.45694  -0.45588  -0.45196
 Alpha  occ. eigenvalues --   -0.45138  -0.45122  -0.44781  -0.44597  -0.44489
 Alpha  occ. eigenvalues --   -0.44473  -0.44447  -0.44292  -0.44200  -0.44171
 Alpha  occ. eigenvalues --   -0.43481  -0.42999  -0.42556  -0.42508  -0.42444
 Alpha  occ. eigenvalues --   -0.42334  -0.42189  -0.42176  -0.42068  -0.41628
 Alpha  occ. eigenvalues --   -0.41617  -0.41569  -0.41015  -0.40970  -0.40774
 Alpha  occ. eigenvalues --   -0.40743  -0.40732  -0.40372  -0.40357  -0.40307
 Alpha  occ. eigenvalues --   -0.40193  -0.40163  -0.40136  -0.40111  -0.39839
 Alpha  occ. eigenvalues --   -0.39354  -0.39274  -0.39265  -0.39135  -0.39085
 Alpha  occ. eigenvalues --   -0.38904  -0.38886  -0.38825  -0.38791  -0.38706
 Alpha  occ. eigenvalues --   -0.38289  -0.38261  -0.38224  -0.37871  -0.37194
 Alpha  occ. eigenvalues --   -0.37176  -0.35005  -0.34991  -0.33574  -0.29916
 Alpha  occ. eigenvalues --   -0.26081
 Alpha virt. eigenvalues --   -0.12497  -0.06335  -0.06290  -0.04863  -0.04811
 Alpha virt. eigenvalues --   -0.04675  -0.01526  -0.01405  -0.01339  -0.01129
 Alpha virt. eigenvalues --   -0.00925  -0.00915  -0.00866  -0.00134  -0.00079

  Beta  occ. eigenvalues -- -197.11240-129.99214-129.99147-129.99143-101.62985
  Beta  occ. eigenvalues --  -22.43629 -19.28518 -19.28498 -19.28452 -19.28373
  Beta  occ. eigenvalues --  -19.28365 -19.28338 -19.28337 -19.28331 -19.28317
  Beta  occ. eigenvalues --  -19.28257 -19.28210 -19.28124 -19.26931 -19.26891
  Beta  occ. eigenvalues --  -19.26880 -19.26875 -19.26856 -19.26846 -19.26829
  Beta  occ. eigenvalues --  -19.26825 -19.26811 -19.26787 -19.26773 -19.26768
  Beta  occ. eigenvalues --  -19.26767 -19.26765 -19.26754 -19.26742 -19.26741
  Beta  occ. eigenvalues --  -19.26741 -19.26733 -19.26726 -19.26720 -19.26706
  Beta  occ. eigenvalues --  -19.26651 -19.26592 -19.24869 -19.24841 -19.24799
  Beta  occ. eigenvalues --  -19.24780 -18.94127 -18.91936 -18.91869 -13.36627
  Beta  occ. eigenvalues --  -13.36554 -13.36551 -10.69553 -10.69549 -10.69548
  Beta  occ. eigenvalues --  -10.69480 -10.69478 -10.69477 -10.69476 -10.69474
  Beta  occ. eigenvalues --  -10.69470 -10.33050 -10.32187 -10.31790 -10.31006
  Beta  occ. eigenvalues --  -10.30979 -10.30969 -10.30444 -10.30377  -9.53441
  Beta  occ. eigenvalues --   -7.29333  -7.27824  -7.27821  -3.21089  -3.21046
  Beta  occ. eigenvalues --   -3.21040  -3.21035  -3.21011  -3.20995  -3.20984
  Beta  occ. eigenvalues --   -3.20981  -3.20973  -3.20866  -3.20827  -3.20807
  Beta  occ. eigenvalues --   -2.75012  -1.85315  -1.85274  -1.85259  -1.85227
  Beta  occ. eigenvalues --   -1.85105  -1.85054  -1.85036  -1.85016  -1.85000
  Beta  occ. eigenvalues --   -1.84989  -1.84977  -1.84912  -1.84366  -1.84256
  Beta  occ. eigenvalues --   -1.84238  -1.84234  -1.84196  -1.84188  -1.84122
  Beta  occ. eigenvalues --   -1.84110  -1.84085  -1.84075  -1.84054  -1.84039
  Beta  occ. eigenvalues --   -1.83922  -1.83891  -1.83869  -1.83864  -1.83832
  Beta  occ. eigenvalues --   -1.83801  -1.83779  -1.83777  -1.83763  -1.83665
  Beta  occ. eigenvalues --   -1.83655  -1.83648  -1.80868  -1.76180  -1.76029
  Beta  occ. eigenvalues --   -1.50320  -1.50251  -1.50251  -1.08609  -1.06978
  Beta  occ. eigenvalues --   -1.06929  -1.06896  -1.06010  -1.05989  -1.05948
  Beta  occ. eigenvalues --   -1.04574  -1.04547  -1.04543  -1.03975  -1.03966
  Beta  occ. eigenvalues --   -1.03709  -1.03338  -1.03307  -1.03281  -1.03018
  Beta  occ. eigenvalues --   -1.02978  -1.02245  -1.02220  -1.02198  -1.02047
  Beta  occ. eigenvalues --   -1.01985  -1.01943  -1.01888  -1.01852  -1.01762
  Beta  occ. eigenvalues --   -1.01730  -1.01719  -1.01608  -1.01571  -1.01526
  Beta  occ. eigenvalues --   -1.01281  -1.00786  -1.00732  -1.00685  -1.00681
  Beta  occ. eigenvalues --   -0.99940  -0.99886  -0.99835  -0.96282  -0.89731
  Beta  occ. eigenvalues --   -0.85754  -0.85692  -0.85689  -0.85608  -0.85593
  Beta  occ. eigenvalues --   -0.85547  -0.85538  -0.85534  -0.85514  -0.84897
  Beta  occ. eigenvalues --   -0.84273  -0.82646  -0.72057  -0.69664  -0.65183
  Beta  occ. eigenvalues --   -0.62307  -0.61676  -0.61655  -0.61627  -0.60678
  Beta  occ. eigenvalues --   -0.58948  -0.58932  -0.58921  -0.58790  -0.58777
  Beta  occ. eigenvalues --   -0.58744  -0.58726  -0.58662  -0.58547  -0.57374
  Beta  occ. eigenvalues --   -0.57220  -0.57177  -0.57004  -0.56801  -0.56507
  Beta  occ. eigenvalues --   -0.56427  -0.56381  -0.55853  -0.55642  -0.55346
  Beta  occ. eigenvalues --   -0.55327  -0.55326  -0.54530  -0.54155  -0.54130
  Beta  occ. eigenvalues --   -0.53922  -0.53677  -0.53654  -0.53612  -0.52717
  Beta  occ. eigenvalues --   -0.52619  -0.52569  -0.52454  -0.52424  -0.51444
  Beta  occ. eigenvalues --   -0.51434  -0.51425  -0.51282  -0.51226  -0.50830
  Beta  occ. eigenvalues --   -0.50486  -0.50463  -0.50415  -0.50307  -0.50217
  Beta  occ. eigenvalues --   -0.50140  -0.50014  -0.49983  -0.49954  -0.49656
  Beta  occ. eigenvalues --   -0.49596  -0.49547  -0.49474  -0.49433  -0.49294
  Beta  occ. eigenvalues --   -0.49235  -0.49203  -0.49097  -0.49069  -0.48989
  Beta  occ. eigenvalues --   -0.48648  -0.48506  -0.48463  -0.48409  -0.47761
  Beta  occ. eigenvalues --   -0.47589  -0.47541  -0.45907  -0.45892  -0.45812
  Beta  occ. eigenvalues --   -0.45799  -0.45666  -0.45554  -0.45196  -0.45160
  Beta  occ. eigenvalues --   -0.45127  -0.45046  -0.44781  -0.44596  -0.44474
  Beta  occ. eigenvalues --   -0.44420  -0.44413  -0.44278  -0.44179  -0.44154
  Beta  occ. eigenvalues --   -0.43476  -0.43094  -0.42496  -0.42467  -0.42398
  Beta  occ. eigenvalues --   -0.42264  -0.42152  -0.42145  -0.42134  -0.41610
  Beta  occ. eigenvalues --   -0.41597  -0.41546  -0.41277  -0.41021  -0.40923
  Beta  occ. eigenvalues --   -0.40746  -0.40705  -0.40644  -0.40357  -0.40345
  Beta  occ. eigenvalues --   -0.40288  -0.40150  -0.40122  -0.40111  -0.39782
  Beta  occ. eigenvalues --   -0.39631  -0.39355  -0.39167  -0.39115  -0.39095
  Beta  occ. eigenvalues --   -0.38900  -0.38861  -0.38838  -0.38796  -0.38734
  Beta  occ. eigenvalues --   -0.38684  -0.38292  -0.38257  -0.38222  -0.37992
  Beta  occ. eigenvalues --   -0.37196  -0.37171  -0.35986  -0.35972  -0.33819
  Beta  occ. eigenvalues --   -0.30833
  Beta virt. eigenvalues --   -0.06333  -0.06291  -0.04862  -0.04810  -0.04675
  Beta virt. eigenvalues --   -0.01521  -0.01400  -0.01334  -0.01124  -0.00920
  Beta virt. eigenvalues --   -0.00911  -0.00862  -0.00123  -0.00065  -0.00031

 Mulliken charges and spin densities:
               1          2
     1  Cl  -0.334268  -0.636456
     2  C   -0.036669  -0.083838
     3  C    0.014330   0.046408
     4  C   -0.035483  -0.080131
     5  C   -0.031198   0.051426
     6  C    0.006032  -0.102719
     7  C   -0.048338   0.051382
     8  H    0.048560   0.003666
     9  H    0.050020   0.003451
    10  H    0.054955  -0.001812
    11  H    0.055763   0.004512
    12  H    0.053657  -0.001790
    13  C    0.000645  -0.214016
    14  C   -0.043152  -0.051670
    15  H    0.073147   0.009074
    16  H    0.094725   0.003208
    17  H    0.088087   0.001807
    18  O   -0.672839  -0.000577
    19  O   -0.670691  -0.000518
    20  O   -0.666038  -0.001727
    21  O   -0.671761  -0.000537
    22  W    1.720776   0.000362
    23  W    1.660500   0.000491
    24  W    1.671631   0.000190
    25  W    1.681117   0.000203
    26  W    1.663952   0.002679
    27  W    1.711954   0.002432
    28  W    1.613021   0.003261
    29  W    1.671841   0.002828
    30  O   -0.350442  -0.000544
    31  O   -0.393557  -0.000563
    32  O   -0.394468  -0.000613
    33  O   -0.390460  -0.000562
    34  O   -0.674405  -0.000309
    35  O   -0.678639  -0.000064
    36  O   -0.671294  -0.000141
    37  O   -0.673412  -0.000238
    38  O   -0.397344   0.002005
    39  O   -0.395976   0.002030
    40  O   -0.339488  -0.000331
    41  O   -0.395040   0.001999
    42  O   -0.678151   0.000076
    43  O   -0.672450   0.000158
    44  O   -0.669748   0.000290
    45  O   -0.674524   0.000109
    46  O   -0.398429   0.002310
    47  O   -0.352763   0.002228
    48  O   -0.391364   0.001840
    49  O   -0.393234   0.002401
    50  W    1.660534   0.002648
    51  W    1.664156   0.002544
    52  W    1.678318   0.003638
    53  W    1.671039   0.002466
    54  O   -0.722307   0.000097
    55  O   -0.707175   0.000010
    56  O   -0.723071   0.000163
    57  O   -0.720996   0.000054
    58  O   -0.706019   0.000016
    59  O   -0.724511   0.000140
    60  O   -0.722785   0.000191
    61  O   -0.719194   0.000184
    62  O   -0.723607  -0.000175
    63  O   -0.708638  -0.000032
    64  O   -0.722830  -0.000198
    65  O   -0.724773  -0.000210
    66  O   -0.886387   0.004866
    67  O   -0.885727   0.007075
    68  O   -0.883376   0.006848
    69  O   -0.889436   0.006413
    70  K    0.852209   0.000183
    71  K    0.853447   0.000200
    72  K    0.849407   0.000217
    73  V    1.202632   0.938992
 Sum of Mulliken charges =  -1.00000  -0.00000

 Dipole moment (field-independent basis, Debye):
    X=             28.8998    Y=            -13.7347    Z=            -30.5239  Tot=             44.2217
 Quadrupole moment (field-independent basis, Debye-Ang):
   XX=           -770.9648   YY=           -704.8332   ZZ=           -777.7885
   XY=            130.2775   XZ=            181.8760   YZ=            -93.5715

 Normal termination of Gaussian 16 at Sun Jun  2 07:50:27 2024.
