 Gaussian 16, Revision C.01,
 Gaussian 16:  ES64L-G16RevC.01  3-Jul-2019

 ----------------------------------------------------------------------
 # def2svp wb97xd scrf=(smd,solvent=acetonitrile) g09default scf=(xqc,m
 axcycle=64) force guess=read nosymm
 ----------------------------------------------------------------------

 ----------
 Title Card
 ----------
 Symbolic Z-matrix:
 Charge = -1 Multiplicity = 1

                          Input orientation:
 ---------------------------------------------------------------------
 Center     Atomic      Atomic             Coordinates (Angstroms)
 Number     Number       Type             X           Y           Z
 ---------------------------------------------------------------------
      1         17           0       -9.828278    8.212430   10.549437
      2          6           0       -8.326197    4.234774   12.223494
      3          6           0       -9.111244    3.919621   11.099351
      4          6           0      -10.029048    2.858030   11.208030
      5          6           0      -10.200934    2.178285   12.409537
      6          6           0       -9.446687    2.534532   13.528558
      7          6           0       -8.494283    3.550757   13.423650
      8          1           0       -7.571087    5.020699   12.156978
      9          1           0      -10.612393    2.567511   10.329396
     10          1           0      -10.917396    1.355416   12.472550
     11          1           0       -9.581923    2.004332   14.473993
     12          1           0       -7.872614    3.808145   14.284815
     13          6           0       -9.015353    4.651484    9.834784
     14          6           0       -8.277147    5.753709    9.589943
     15          1           0       -9.627063    4.248819    9.019876
     16          1           0       -8.241437    6.173079    8.582384
     17          1           0       -7.622031    6.213438   10.331687
     18          8           0       -0.986926   -1.781739    7.464136
     19          8           0       -8.407338   -1.333996    7.461009
     20          8           0       -7.036276    1.347375   10.475733
     21          8           0       -2.332812   -4.377766   10.553655
     22         74           0       -3.411761    0.699582    6.476490
     23         74           0       -5.998999   -3.819168    6.566932
     24         74           0       -3.622046    0.888002   11.421369
     25         74           0       -5.766959   -3.858427   11.475150
     26         74           0       -2.443367   -2.579602    6.397492
     27         74           0       -6.945621   -0.535018    6.369063
     28         74           0       -6.826014   -0.247237   11.565639
     29         74           0       -2.552095   -2.716423   11.607938
     30          8           0       -3.171953    1.888673    5.302718
     31          8           0       -6.137823   -5.069292    5.424405
     32          8           0       -2.707272    1.737821   12.574869
     33          8           0       -6.674745   -4.667698   12.660692
     34          8           0       -2.666589   -0.901102    5.582623
     35          8           0       -6.711620   -2.268387    5.623202
     36          8           0       -5.319101    0.558138   12.362606
     37          8           0       -4.053710   -3.521303   12.403731
     38          8           0        0.299986   -0.000592    9.279146
     39          8           0       -9.707100   -3.034717    9.324781
     40          8           0       -6.359679    3.425781    8.671472
     41          8           0       -2.993421   -6.477965    8.757614
     42          8           0       -1.791394    0.763459    7.475022
     43          8           0       -7.605652   -3.883646    7.548096
     44          8           0       -4.507645    2.209968   10.432135
     45          8           0       -4.873198   -5.222407   10.522762
     46          8           0       -1.610263   -3.523218    5.253191
     47          8           0       -7.835210    0.267534    5.178672
     48          8           0       -8.048881   -0.159479   12.740960
     49          8           0       -1.314236   -2.848105   12.764620
     50         74           0       -1.257649   -0.519027    8.836596
     51         74           0       -8.147013   -2.531427    8.874230
     52         74           0       -5.882546    1.854360    9.048164
     53         74           0       -3.486821   -4.903556    9.167539
     54          8           0       -4.220146   -3.102898    6.067238
     55          8           0       -5.163178   -0.051117    6.008789
     56          8           0       -6.175268   -1.994550   11.910788
     57          8           0       -3.171240   -0.970272   11.934898
     58          8           0       -4.363822    1.579076    7.837043
     59          8           0       -5.005482   -4.675855    7.920884
     60          8           0       -2.333720    0.583666   10.082670
     61          8           0       -7.057162   -3.611598   10.134259
     62          8           0       -2.573054   -3.892978    7.865913
     63          8           0       -6.817688    0.786570    7.807445
     64          8           0       -7.831947   -1.174460   10.140006
     65          8           0       -1.571303   -1.854567   10.138147
     66          8           0       -3.365175   -1.148149    8.002353
     67          8           0       -6.029729   -1.954176    8.033769
     68          8           0       -5.120472   -0.199489    9.948233
     69          8           0       -4.240513   -2.835410    9.975675
     70         19           0       -3.216269   -6.139345    5.645633
     71         19           0       -0.110524    0.057110   12.355206
     72         19           0       -9.291295   -2.874692   12.437129
     73         23           0       -4.691922   -1.529732    8.986883
 ---------------------------------------------------------------------

 SCF Done:  E(RwB97XD) =  -7327.70122251     A.U. after   12 cycles

 Alpha  occ. eigenvalues -- -197.29731-130.00175-130.00143-130.00068-101.47896
 Alpha  occ. eigenvalues --  -22.62826 -19.33755 -19.33744 -19.33734 -19.33706
 Alpha  occ. eigenvalues --  -19.30709 -19.30672 -19.30666 -19.30658 -19.30657
 Alpha  occ. eigenvalues --  -19.30650 -19.30639 -19.30604 -19.30519 -19.30362
 Alpha  occ. eigenvalues --  -19.30310 -19.30126 -19.29312 -19.29306 -19.29282
 Alpha  occ. eigenvalues --  -19.29271 -19.29267 -19.29267 -19.29232 -19.29184
 Alpha  occ. eigenvalues --  -19.29181 -19.29156 -19.29137 -19.29134 -19.29122
 Alpha  occ. eigenvalues --  -19.29112 -19.29087 -19.29076 -19.29074 -19.29057
 Alpha  occ. eigenvalues --  -19.29047 -19.28968 -19.28965 -19.28938 -19.28917
 Alpha  occ. eigenvalues --  -19.28820 -19.11786 -19.11778 -19.11768 -13.37582
 Alpha  occ. eigenvalues --  -13.37548 -13.37466 -10.70510 -10.70504 -10.70502
 Alpha  occ. eigenvalues --  -10.70477 -10.70470 -10.70469 -10.70396 -10.70389
 Alpha  occ. eigenvalues --  -10.70385 -10.29901 -10.29370 -10.29321 -10.29130
 Alpha  occ. eigenvalues --  -10.29055 -10.29024 -10.28267 -10.27813  -9.38351
 Alpha  occ. eigenvalues --   -7.13176  -7.13133  -7.13129  -3.23297  -3.23292
 Alpha  occ. eigenvalues --   -3.23281  -3.23277  -3.23274  -3.23262  -3.23238
 Alpha  occ. eigenvalues --   -3.23222  -3.23178  -3.22964  -3.22958  -3.22740
 Alpha  occ. eigenvalues --   -2.91993  -1.94348  -1.94319  -1.94311  -1.87706
 Alpha  occ. eigenvalues --   -1.87651  -1.87634  -1.87590  -1.87468  -1.87463
 Alpha  occ. eigenvalues --   -1.87447  -1.87426  -1.87388  -1.87269  -1.87227
 Alpha  occ. eigenvalues --   -1.87061  -1.86609  -1.86490  -1.86483  -1.86461
 Alpha  occ. eigenvalues --   -1.86440  -1.86409  -1.86327  -1.86316  -1.86296
 Alpha  occ. eigenvalues --   -1.86276  -1.86263  -1.86230  -1.86127  -1.86113
 Alpha  occ. eigenvalues --   -1.86108  -1.86087  -1.86032  -1.85994  -1.85969
 Alpha  occ. eigenvalues --   -1.85910  -1.85886  -1.85789  -1.85677  -1.85629
 Alpha  occ. eigenvalues --   -1.51261  -1.51232  -1.51153  -1.13118  -1.11360
 Alpha  occ. eigenvalues --   -1.11280  -1.11266  -1.08974  -1.08530  -1.08485
 Alpha  occ. eigenvalues --   -1.08276  -1.07572  -1.07519  -1.07504  -1.06896
 Alpha  occ. eigenvalues --   -1.06859  -1.06849  -1.06312  -1.06289  -1.05294
 Alpha  occ. eigenvalues --   -1.05283  -1.04969  -1.04957  -1.04945  -1.04170
 Alpha  occ. eigenvalues --   -1.04166  -1.04151  -1.04002  -1.03982  -1.03967
 Alpha  occ. eigenvalues --   -1.03924  -1.03883  -1.03864  -1.03738  -1.03700
 Alpha  occ. eigenvalues --   -1.03596  -1.03540  -1.03289  -1.03230  -1.03092
 Alpha  occ. eigenvalues --   -1.03078  -1.03016  -1.02939  -0.94427  -0.86721
 Alpha  occ. eigenvalues --   -0.86695  -0.86621  -0.86586  -0.86535  -0.86521
 Alpha  occ. eigenvalues --   -0.86505  -0.86502  -0.86435  -0.86406  -0.82850
 Alpha  occ. eigenvalues --   -0.79865  -0.71046  -0.69802  -0.68088  -0.64585
 Alpha  occ. eigenvalues --   -0.63942  -0.63904  -0.63898  -0.63361  -0.63331
 Alpha  occ. eigenvalues --   -0.63215  -0.63071  -0.62715  -0.62625  -0.62048
 Alpha  occ. eigenvalues --   -0.61625  -0.61612  -0.61521  -0.61222  -0.61204
 Alpha  occ. eigenvalues --   -0.61160  -0.60401  -0.59484  -0.59453  -0.59439
 Alpha  occ. eigenvalues --   -0.59420  -0.59380  -0.58688  -0.57979  -0.57957
 Alpha  occ. eigenvalues --   -0.57877  -0.57106  -0.57068  -0.57034  -0.56298
 Alpha  occ. eigenvalues --   -0.56257  -0.56088  -0.55684  -0.54846  -0.54777
 Alpha  occ. eigenvalues --   -0.54743  -0.54596  -0.54224  -0.54103  -0.54070
 Alpha  occ. eigenvalues --   -0.54012  -0.53949  -0.53208  -0.53174  -0.53043
 Alpha  occ. eigenvalues --   -0.52991  -0.52873  -0.52690  -0.52633  -0.52616
 Alpha  occ. eigenvalues --   -0.52571  -0.52539  -0.52469  -0.52450  -0.51573
 Alpha  occ. eigenvalues --   -0.51547  -0.51357  -0.51320  -0.51288  -0.51235
 Alpha  occ. eigenvalues --   -0.51174  -0.51159  -0.51014  -0.50721  -0.50539
 Alpha  occ. eigenvalues --   -0.50534  -0.50505  -0.49872  -0.49851  -0.49319
 Alpha  occ. eigenvalues --   -0.49271  -0.49243  -0.49190  -0.49145  -0.49045
 Alpha  occ. eigenvalues --   -0.48895  -0.48076  -0.48024  -0.47925  -0.47748
 Alpha  occ. eigenvalues --   -0.47357  -0.47278  -0.47226  -0.47007  -0.46934
 Alpha  occ. eigenvalues --   -0.46820  -0.46551  -0.46470  -0.46459  -0.46219
 Alpha  occ. eigenvalues --   -0.46158  -0.46107  -0.45642  -0.45078  -0.44901
 Alpha  occ. eigenvalues --   -0.44869  -0.44180  -0.44151  -0.44037  -0.43618
 Alpha  occ. eigenvalues --   -0.43276  -0.43225  -0.43103  -0.43083  -0.43046
 Alpha  occ. eigenvalues --   -0.42695  -0.42668  -0.42648  -0.42584  -0.42580
 Alpha  occ. eigenvalues --   -0.42493  -0.42450  -0.42432  -0.42270  -0.42253
 Alpha  occ. eigenvalues --   -0.42230  -0.42005  -0.41891  -0.41838  -0.41821
 Alpha  occ. eigenvalues --   -0.41248  -0.41150  -0.41130  -0.41009  -0.40531
 Alpha  occ. eigenvalues --   -0.40506  -0.40502  -0.40430  -0.39434  -0.39415
 Alpha  occ. eigenvalues --   -0.36987  -0.32567  -0.28969  -0.24732  -0.24711
 Alpha  occ. eigenvalues --   -0.23535
 Alpha virt. eigenvalues --   -0.09681  -0.09465  -0.08477  -0.08423  -0.07023
 Alpha virt. eigenvalues --   -0.06995  -0.06863  -0.04663  -0.04323  -0.04292
 Alpha virt. eigenvalues --   -0.03720  -0.03541  -0.03465  -0.03246  -0.03152

 Mulliken charges:
               1
     1  Cl  -0.922450
     2  C   -0.077218
     3  C    0.044112
     4  C   -0.075813
     5  C   -0.033637
     6  C   -0.032035
     7  C   -0.049945
     8  H    0.030269
     9  H    0.030810
    10  H    0.041637
    11  H    0.037625
    12  H    0.040395
    13  C   -0.109371
    14  C    0.015422
    15  H    0.022977
    16  H    0.042499
    17  H    0.030830
    18  O   -0.663997
    19  O   -0.662123
    20  O   -0.654833
    21  O   -0.662906
    22  W    1.737406
    23  W    1.675324
    24  W    1.684615
    25  W    1.695399
    26  W    1.677707
    27  W    1.729748
    28  W    1.621592
    29  W    1.686499
    30  O   -0.320232
    31  O   -0.365556
    32  O   -0.366450
    33  O   -0.361420
    34  O   -0.666089
    35  O   -0.671219
    36  O   -0.662350
    37  O   -0.664729
    38  O   -0.367677
    39  O   -0.365441
    40  O   -0.295688
    41  O   -0.365146
    42  O   -0.670438
    43  O   -0.663843
    44  O   -0.661351
    45  O   -0.666120
    46  O   -0.368981
    47  O   -0.321181
    48  O   -0.359096
    49  O   -0.362766
    50  W    1.675036
    51  W    1.678953
    52  W    1.685141
    53  W    1.685954
    54  O   -0.724368
    55  O   -0.708816
    56  O   -0.726419
    57  O   -0.722759
    58  O   -0.708415
    59  O   -0.727408
    60  O   -0.725285
    61  O   -0.721501
    62  O   -0.725244
    63  O   -0.710078
    64  O   -0.723966
    65  O   -0.727054
    66  O   -0.803687
    67  O   -0.802377
    68  O   -0.799709
    69  O   -0.808847
    70  K    0.865312
    71  K    0.866322
    72  K    0.862692
    73  V    1.191756
 Sum of Mulliken charges =  -1.00000

 Dipole moment (field-independent basis, Debye):
    X=             51.3662    Y=            -51.7754    Z=            -38.5596  Tot=             82.4986
 Quadrupole moment (field-independent basis, Debye-Ang):
   XX=          -1060.1741   YY=           -890.0909   ZZ=           -910.7751
   XY=            459.8600   XZ=            460.4563   YZ=           -484.1364

 Normal termination of Gaussian 16 at Sun Jun  2 08:42:47 2024.
