 Gaussian 16, Revision C.01,
 Gaussian 16:  ES64L-G16RevC.01  3-Jul-2019

 ----------------------------------------------------------------------
 # def2svp wb97xd scrf=(smd,solvent=acetonitrile) g09default scf=(xqc,m
 axcycle=64) force guess=read nosymm
 ----------------------------------------------------------------------

 ----------
 Title Card
 ----------
 Symbolic Z-matrix:
 Charge = -1 Multiplicity = 1

                          Input orientation:
 ---------------------------------------------------------------------
 Center     Atomic      Atomic             Coordinates (Angstroms)
 Number     Number       Type             X           Y           Z
 ---------------------------------------------------------------------
      1         17           0       -9.828278    8.212430   10.549437
      2          6           0       -8.326197    4.234774   12.223494
      3          6           0       -9.111244    3.919621   11.099351
      4          6           0      -10.029048    2.858030   11.208030
      5          6           0      -10.200934    2.178285   12.409537
      6          6           0       -9.446687    2.534532   13.528558
      7          6           0       -8.494283    3.550757   13.423650
      8          1           0       -7.571087    5.020699   12.156978
      9          1           0      -10.612393    2.567511   10.329396
     10          1           0      -10.917396    1.355416   12.472550
     11          1           0       -9.581923    2.004332   14.473993
     12          1           0       -7.872614    3.808145   14.284815
     13          6           0       -9.015353    4.651484    9.834784
     14          6           0       -8.277147    5.753709    9.589943
     15          1           0       -9.627063    4.248819    9.019876
     16          1           0       -8.241437    6.173079    8.582384
     17          1           0       -7.622031    6.213438   10.331687
     18          8           0       -0.986926   -1.781739    7.464136
     19          8           0       -8.407338   -1.333996    7.461009
     20          8           0       -7.036276    1.347375   10.475733
     21          8           0       -2.332812   -4.377766   10.553655
     22         74           0       -3.411761    0.699582    6.476490
     23         74           0       -5.998999   -3.819168    6.566932
     24         74           0       -3.622046    0.888002   11.421369
     25         74           0       -5.766959   -3.858427   11.475150
     26         74           0       -2.443367   -2.579602    6.397492
     27         74           0       -6.945621   -0.535018    6.369063
     28         74           0       -6.826014   -0.247237   11.565639
     29         74           0       -2.552095   -2.716423   11.607938
     30          8           0       -3.171953    1.888673    5.302718
     31          8           0       -6.137823   -5.069292    5.424405
     32          8           0       -2.707272    1.737821   12.574869
     33          8           0       -6.674745   -4.667698   12.660692
     34          8           0       -2.666589   -0.901102    5.582623
     35          8           0       -6.711620   -2.268387    5.623202
     36          8           0       -5.319101    0.558138   12.362606
     37          8           0       -4.053710   -3.521303   12.403731
     38          8           0        0.299986   -0.000592    9.279146
     39          8           0       -9.707100   -3.034717    9.324781
     40          8           0       -6.359679    3.425781    8.671472
     41          8           0       -2.993421   -6.477965    8.757614
     42          8           0       -1.791394    0.763459    7.475022
     43          8           0       -7.605652   -3.883646    7.548096
     44          8           0       -4.507645    2.209968   10.432135
     45          8           0       -4.873198   -5.222407   10.522762
     46          8           0       -1.610263   -3.523218    5.253191
     47          8           0       -7.835210    0.267534    5.178672
     48          8           0       -8.048881   -0.159479   12.740960
     49          8           0       -1.314236   -2.848105   12.764620
     50         74           0       -1.257649   -0.519027    8.836596
     51         74           0       -8.147013   -2.531427    8.874230
     52         74           0       -5.882546    1.854360    9.048164
     53         74           0       -3.486821   -4.903556    9.167539
     54          8           0       -4.220146   -3.102898    6.067238
     55          8           0       -5.163178   -0.051117    6.008789
     56          8           0       -6.175268   -1.994550   11.910788
     57          8           0       -3.171240   -0.970272   11.934898
     58          8           0       -4.363822    1.579076    7.837043
     59          8           0       -5.005482   -4.675855    7.920884
     60          8           0       -2.333720    0.583666   10.082670
     61          8           0       -7.057162   -3.611598   10.134259
     62          8           0       -2.573054   -3.892978    7.865913
     63          8           0       -6.817688    0.786570    7.807445
     64          8           0       -7.831947   -1.174460   10.140006
     65          8           0       -1.571303   -1.854567   10.138147
     66          8           0       -3.365175   -1.148149    8.002353
     67          8           0       -6.029729   -1.954176    8.033769
     68          8           0       -5.120472   -0.199489    9.948233
     69          8           0       -4.240513   -2.835410    9.975675
     70         19           0       -3.216269   -6.139345    5.645633
     71         19           0       -0.110524    0.057110   12.355206
     72         19           0       -9.291295   -2.874692   12.437129
     73         23           0       -4.691922   -1.529732    8.986883
 ---------------------------------------------------------------------

 SCF Done:  E(UwB97XD) =  -7327.70123051     A.U. after   44 cycles

 Alpha  occ. eigenvalues --  -19.24807 -18.94485 -18.93394 -18.93363 -13.36620
 Alpha  occ. eigenvalues --  -13.36542 -13.36539 -10.69546 -10.69542 -10.69541
 Alpha  occ. eigenvalues --  -10.69470 -10.69466 -10.69465 -10.69461 -10.69461
 Alpha  occ. eigenvalues --  -10.69460 -10.32837 -10.32056 -10.31847 -10.30908
 Alpha  occ. eigenvalues --  -10.30902 -10.30890 -10.30502 -10.30435  -9.52973
 Alpha  occ. eigenvalues --   -7.27864  -7.27503  -7.27499  -3.21096  -3.21052
 Alpha  occ. eigenvalues --   -3.21049  -3.21037  -3.21021  -3.21004  -3.20995
 Alpha  occ. eigenvalues --   -3.20990  -3.20983  -3.20873  -3.20839  -3.20818
 Alpha  occ. eigenvalues --   -2.79090  -1.85322  -1.85282  -1.85264  -1.85239
 Alpha  occ. eigenvalues --   -1.85113  -1.85062  -1.85048  -1.85027  -1.85011
 Alpha  occ. eigenvalues --   -1.85001  -1.84986  -1.84922  -1.84372  -1.84262
 Alpha  occ. eigenvalues --   -1.84245  -1.84239  -1.84202  -1.84194  -1.84128
 Alpha  occ. eigenvalues --   -1.84116  -1.84091  -1.84082  -1.84060  -1.84045
 Alpha  occ. eigenvalues --   -1.83930  -1.83898  -1.83874  -1.83869  -1.83838
 Alpha  occ. eigenvalues --   -1.83808  -1.83785  -1.83784  -1.83771  -1.83672
 Alpha  occ. eigenvalues --   -1.83662  -1.83656  -1.82218  -1.81885  -1.81861
 Alpha  occ. eigenvalues --   -1.50313  -1.50243  -1.50237  -1.08628  -1.06999
 Alpha  occ. eigenvalues --   -1.06955  -1.06924  -1.06013  -1.05994  -1.05951
 Alpha  occ. eigenvalues --   -1.04574  -1.04550  -1.04543  -1.03977  -1.03968
 Alpha  occ. eigenvalues --   -1.03776  -1.03374  -1.03351  -1.03324  -1.03018
 Alpha  occ. eigenvalues --   -1.02985  -1.02262  -1.02241  -1.02216  -1.02058
 Alpha  occ. eigenvalues --   -1.01991  -1.01958  -1.01895  -1.01867  -1.01764
 Alpha  occ. eigenvalues --   -1.01733  -1.01724  -1.01610  -1.01579  -1.01543
 Alpha  occ. eigenvalues --   -1.01281  -1.00825  -1.00732  -1.00685  -1.00680
 Alpha  occ. eigenvalues --   -1.00071  -1.00007  -0.99954  -0.96090  -0.89128
 Alpha  occ. eigenvalues --   -0.85748  -0.85685  -0.85675  -0.85601  -0.85586
 Alpha  occ. eigenvalues --   -0.85540  -0.85524  -0.85519  -0.85506  -0.84189
 Alpha  occ. eigenvalues --   -0.82320  -0.81251  -0.71830  -0.69556  -0.64977
 Alpha  occ. eigenvalues --   -0.62311  -0.61680  -0.61658  -0.61631  -0.60500
 Alpha  occ. eigenvalues --   -0.58961  -0.58936  -0.58925  -0.58861  -0.58806
 Alpha  occ. eigenvalues --   -0.58789  -0.58755  -0.58716  -0.58548  -0.57405
 Alpha  occ. eigenvalues --   -0.57371  -0.57346  -0.57057  -0.56638  -0.56506
 Alpha  occ. eigenvalues --   -0.56463  -0.56419  -0.56053  -0.55898  -0.55363
 Alpha  occ. eigenvalues --   -0.55348  -0.55322  -0.54372  -0.54160  -0.54141
 Alpha  occ. eigenvalues --   -0.53931  -0.53721  -0.53677  -0.53653  -0.52680
 Alpha  occ. eigenvalues --   -0.52587  -0.52583  -0.52475  -0.52434  -0.51468
 Alpha  occ. eigenvalues --   -0.51453  -0.51443  -0.51353  -0.51287  -0.50689
 Alpha  occ. eigenvalues --   -0.50528  -0.50521  -0.50462  -0.50365  -0.50266
 Alpha  occ. eigenvalues --   -0.50236  -0.50045  -0.49988  -0.49976  -0.49710
 Alpha  occ. eigenvalues --   -0.49621  -0.49573  -0.49482  -0.49446  -0.49293
 Alpha  occ. eigenvalues --   -0.49258  -0.49206  -0.49133  -0.49086  -0.49017
 Alpha  occ. eigenvalues --   -0.48658  -0.48501  -0.48466  -0.48426  -0.47653
 Alpha  occ. eigenvalues --   -0.47622  -0.47124  -0.46477  -0.46041  -0.46013
 Alpha  occ. eigenvalues --   -0.45875  -0.45755  -0.45705  -0.45591  -0.45198
 Alpha  occ. eigenvalues --   -0.45138  -0.45121  -0.44777  -0.44596  -0.44489
 Alpha  occ. eigenvalues --   -0.44474  -0.44447  -0.44295  -0.44200  -0.44168
 Alpha  occ. eigenvalues --   -0.43481  -0.43006  -0.42556  -0.42509  -0.42441
 Alpha  occ. eigenvalues --   -0.42335  -0.42189  -0.42176  -0.42076  -0.41628
 Alpha  occ. eigenvalues --   -0.41616  -0.41571  -0.41014  -0.40971  -0.40772
 Alpha  occ. eigenvalues --   -0.40744  -0.40731  -0.40368  -0.40352  -0.40304
 Alpha  occ. eigenvalues --   -0.40191  -0.40163  -0.40137  -0.40110  -0.39838
 Alpha  occ. eigenvalues --   -0.39354  -0.39271  -0.39263  -0.39133  -0.39085
 Alpha  occ. eigenvalues --   -0.38901  -0.38884  -0.38823  -0.38790  -0.38704
 Alpha  occ. eigenvalues --   -0.38289  -0.38260  -0.38222  -0.37882  -0.37195
 Alpha  occ. eigenvalues --   -0.37175  -0.35005  -0.34989  -0.33581  -0.29944
 Alpha  occ. eigenvalues --   -0.26091
 Alpha virt. eigenvalues --   -0.12500  -0.06350  -0.06302  -0.04873  -0.04826
 Alpha virt. eigenvalues --   -0.04687  -0.01529  -0.01407  -0.01343  -0.01138
 Alpha virt. eigenvalues --   -0.00925  -0.00922  -0.00874  -0.00140  -0.00084

  Beta  occ. eigenvalues -- -197.11253-129.99207-129.99138-129.99128-101.62981
  Beta  occ. eigenvalues --  -22.43640 -19.28516 -19.28489 -19.28455 -19.28377
  Beta  occ. eigenvalues --  -19.28371 -19.28351 -19.28338 -19.28334 -19.28314
  Beta  occ. eigenvalues --  -19.28266 -19.28214 -19.28123 -19.26933 -19.26889
  Beta  occ. eigenvalues --  -19.26883 -19.26877 -19.26856 -19.26843 -19.26827
  Beta  occ. eigenvalues --  -19.26823 -19.26811 -19.26787 -19.26771 -19.26771
  Beta  occ. eigenvalues --  -19.26767 -19.26762 -19.26755 -19.26743 -19.26742
  Beta  occ. eigenvalues --  -19.26738 -19.26730 -19.26728 -19.26720 -19.26702
  Beta  occ. eigenvalues --  -19.26650 -19.26590 -19.24865 -19.24843 -19.24801
  Beta  occ. eigenvalues --  -19.24781 -18.94139 -18.91945 -18.91882 -13.36620
  Beta  occ. eigenvalues --  -13.36542 -13.36539 -10.69546 -10.69542 -10.69541
  Beta  occ. eigenvalues --  -10.69470 -10.69466 -10.69465 -10.69461 -10.69461
  Beta  occ. eigenvalues --  -10.69460 -10.33072 -10.32191 -10.31806 -10.31018
  Beta  occ. eigenvalues --  -10.30995 -10.30979 -10.30451 -10.30383  -9.53436
  Beta  occ. eigenvalues --   -7.29327  -7.27821  -7.27817  -3.21096  -3.21049
  Beta  occ. eigenvalues --   -3.21046  -3.21036  -3.21015  -3.20998  -3.20990
  Beta  occ. eigenvalues --   -3.20984  -3.20977  -3.20873  -3.20834  -3.20813
  Beta  occ. eigenvalues --   -2.75018  -1.85318  -1.85277  -1.85259  -1.85231
  Beta  occ. eigenvalues --   -1.85108  -1.85057  -1.85042  -1.85022  -1.85002
  Beta  occ. eigenvalues --   -1.84992  -1.84981  -1.84913  -1.84369  -1.84260
  Beta  occ. eigenvalues --   -1.84241  -1.84236  -1.84199  -1.84191  -1.84125
  Beta  occ. eigenvalues --   -1.84114  -1.84088  -1.84079  -1.84057  -1.84042
  Beta  occ. eigenvalues --   -1.83927  -1.83895  -1.83871  -1.83866  -1.83836
  Beta  occ. eigenvalues --   -1.83805  -1.83782  -1.83781  -1.83768  -1.83670
  Beta  occ. eigenvalues --   -1.83659  -1.83653  -1.80873  -1.76179  -1.76039
  Beta  occ. eigenvalues --   -1.50313  -1.50243  -1.50237  -1.08610  -1.06980
  Beta  occ. eigenvalues --   -1.06932  -1.06896  -1.06011  -1.05992  -1.05951
  Beta  occ. eigenvalues --   -1.04575  -1.04549  -1.04543  -1.03977  -1.03969
  Beta  occ. eigenvalues --   -1.03709  -1.03341  -1.03310  -1.03285  -1.03018
  Beta  occ. eigenvalues --   -1.02978  -1.02242  -1.02218  -1.02199  -1.02050
  Beta  occ. eigenvalues --   -1.01987  -1.01945  -1.01891  -1.01853  -1.01760
  Beta  occ. eigenvalues --   -1.01731  -1.01721  -1.01608  -1.01576  -1.01527
  Beta  occ. eigenvalues --   -1.01281  -1.00787  -1.00732  -1.00684  -1.00680
  Beta  occ. eigenvalues --   -0.99939  -0.99887  -0.99836  -0.96292  -0.89736
  Beta  occ. eigenvalues --   -0.85748  -0.85685  -0.85675  -0.85601  -0.85586
  Beta  occ. eigenvalues --   -0.85540  -0.85524  -0.85519  -0.85506  -0.84899
  Beta  occ. eigenvalues --   -0.84282  -0.82652  -0.72068  -0.69667  -0.65195
  Beta  occ. eigenvalues --   -0.62311  -0.61680  -0.61658  -0.61631  -0.60681
  Beta  occ. eigenvalues --   -0.58951  -0.58934  -0.58923  -0.58791  -0.58780
  Beta  occ. eigenvalues --   -0.58747  -0.58730  -0.58664  -0.58549  -0.57373
  Beta  occ. eigenvalues --   -0.57219  -0.57177  -0.57003  -0.56807  -0.56510
  Beta  occ. eigenvalues --   -0.56430  -0.56383  -0.55854  -0.55643  -0.55345
  Beta  occ. eigenvalues --   -0.55327  -0.55325  -0.54542  -0.54153  -0.54130
  Beta  occ. eigenvalues --   -0.53920  -0.53679  -0.53656  -0.53614  -0.52717
  Beta  occ. eigenvalues --   -0.52621  -0.52573  -0.52456  -0.52426  -0.51445
  Beta  occ. eigenvalues --   -0.51433  -0.51426  -0.51278  -0.51223  -0.50840
  Beta  occ. eigenvalues --   -0.50489  -0.50464  -0.50420  -0.50310  -0.50222
  Beta  occ. eigenvalues --   -0.50142  -0.50014  -0.49983  -0.49951  -0.49656
  Beta  occ. eigenvalues --   -0.49596  -0.49544  -0.49474  -0.49435  -0.49293
  Beta  occ. eigenvalues --   -0.49234  -0.49205  -0.49102  -0.49071  -0.48995
  Beta  occ. eigenvalues --   -0.48651  -0.48505  -0.48461  -0.48417  -0.47762
  Beta  occ. eigenvalues --   -0.47585  -0.47542  -0.45911  -0.45895  -0.45818
  Beta  occ. eigenvalues --   -0.45805  -0.45666  -0.45555  -0.45199  -0.45160
  Beta  occ. eigenvalues --   -0.45126  -0.45045  -0.44777  -0.44595  -0.44474
  Beta  occ. eigenvalues --   -0.44419  -0.44416  -0.44280  -0.44179  -0.44152
  Beta  occ. eigenvalues --   -0.43476  -0.43103  -0.42494  -0.42467  -0.42397
  Beta  occ. eigenvalues --   -0.42265  -0.42155  -0.42150  -0.42136  -0.41609
  Beta  occ. eigenvalues --   -0.41595  -0.41547  -0.41280  -0.41020  -0.40924
  Beta  occ. eigenvalues --   -0.40746  -0.40703  -0.40644  -0.40353  -0.40341
  Beta  occ. eigenvalues --   -0.40286  -0.40148  -0.40124  -0.40110  -0.39782
  Beta  occ. eigenvalues --   -0.39629  -0.39355  -0.39167  -0.39113  -0.39094
  Beta  occ. eigenvalues --   -0.38898  -0.38858  -0.38836  -0.38793  -0.38733
  Beta  occ. eigenvalues --   -0.38681  -0.38292  -0.38256  -0.38219  -0.37997
  Beta  occ. eigenvalues --   -0.37197  -0.37170  -0.35985  -0.35969  -0.33828
  Beta  occ. eigenvalues --   -0.30844
  Beta virt. eigenvalues --   -0.06349  -0.06302  -0.04872  -0.04825  -0.04686
  Beta virt. eigenvalues --   -0.01525  -0.01403  -0.01338  -0.01132  -0.00921
  Beta virt. eigenvalues --   -0.00917  -0.00869  -0.00129  -0.00071  -0.00036

 Mulliken charges and spin densities:
               1          2
     1  Cl  -0.334366  -0.635543
     2  C   -0.036398  -0.084765
     3  C    0.014250   0.047096
     4  C   -0.035480  -0.080872
     5  C   -0.031350   0.051885
     6  C    0.006054  -0.103693
     7  C   -0.048382   0.051914
     8  H    0.048845   0.003713
     9  H    0.050292   0.003484
    10  H    0.055183  -0.001830
    11  H    0.055939   0.004555
    12  H    0.053738  -0.001810
    13  C    0.000742  -0.217222
    14  C   -0.043894  -0.048320
    15  H    0.073418   0.009192
    16  H    0.094832   0.003064
    17  H    0.087677   0.001539
    18  O   -0.672916  -0.000577
    19  O   -0.671058  -0.000521
    20  O   -0.666150  -0.001715
    21  O   -0.671989  -0.000539
    22  W    1.721051   0.000361
    23  W    1.661233   0.000489
    24  W    1.672211   0.000187
    25  W    1.681655   0.000202
    26  W    1.664168   0.002678
    27  W    1.712273   0.002424
    28  W    1.613163   0.003269
    29  W    1.672259   0.002821
    30  O   -0.350174  -0.000544
    31  O   -0.393979  -0.000565
    32  O   -0.394866  -0.000613
    33  O   -0.390196  -0.000562
    34  O   -0.674523  -0.000308
    35  O   -0.678753  -0.000060
    36  O   -0.671400  -0.000141
    37  O   -0.673640  -0.000237
    38  O   -0.397389   0.002009
    39  O   -0.395462   0.002033
    40  O   -0.339587  -0.000248
    41  O   -0.395182   0.002005
    42  O   -0.678285   0.000070
    43  O   -0.672563   0.000153
    44  O   -0.670010   0.000284
    45  O   -0.674630   0.000104
    46  O   -0.398912   0.002304
    47  O   -0.352969   0.002225
    48  O   -0.391935   0.001840
    49  O   -0.392952   0.002394
    50  W    1.660977   0.002649
    51  W    1.664691   0.002542
    52  W    1.678695   0.003641
    53  W    1.671493   0.002470
    54  O   -0.722442   0.000098
    55  O   -0.707371   0.000012
    56  O   -0.723126   0.000163
    57  O   -0.721186   0.000055
    58  O   -0.706104   0.000019
    59  O   -0.724639   0.000140
    60  O   -0.722824   0.000191
    61  O   -0.719295   0.000183
    62  O   -0.723718  -0.000177
    63  O   -0.708726  -0.000036
    64  O   -0.722951  -0.000201
    65  O   -0.724871  -0.000212
    66  O   -0.886367   0.004862
    67  O   -0.885831   0.007082
    68  O   -0.883228   0.006820
    69  O   -0.889301   0.006393
    70  K    0.851820   0.000183
    71  K    0.853195   0.000200
    72  K    0.849155   0.000216
    73  V    1.202365   0.939099
 Sum of Mulliken charges =  -1.00000   0.00000

 Dipole moment (field-independent basis, Debye):
    X=             28.8328    Y=            -13.7184    Z=            -30.4959  Tot=             44.1534
 Quadrupole moment (field-independent basis, Debye-Ang):
   XX=           -769.7304   YY=           -705.6359   ZZ=           -777.2451
   XY=            130.0318   XZ=            181.0348   YZ=            -93.5416

 Normal termination of Gaussian 16 at Sun Jun  2 08:31:51 2024.
