 Gaussian 16, Revision C.01,
 Gaussian 16:  ES64L-G16RevC.01  3-Jul-2019

 ----------------------------------------------------------------------
 # def2svp wb97xd scrf=(smd,solvent=acetonitrile) g09default scf=(xqc,m
 axcycle=64) force guess=read nosymm
 ----------------------------------------------------------------------

 ----------
 Title Card
 ----------
 Symbolic Z-matrix:
 Charge = -1 Multiplicity = 1

                          Input orientation:
 ---------------------------------------------------------------------
 Center     Atomic      Atomic             Coordinates (Angstroms)
 Number     Number       Type             X           Y           Z
 ---------------------------------------------------------------------
      1         17           0       -9.811621    8.227025   10.552273
      2          6           0       -8.327658    4.235044   12.222750
      3          6           0       -9.114512    3.920841   11.099740
      4          6           0      -10.030907    2.857724   11.208675
      5          6           0      -10.201484    2.177854   12.410534
      6          6           0       -9.447187    2.535121   13.529180
      7          6           0       -8.494487    3.550993   13.422962
      8          1           0       -7.571344    5.020035   12.155394
      9          1           0      -10.614448    2.566221   10.330814
     10          1           0      -10.917294    1.354642   12.473888
     11          1           0       -9.582736    2.006109   14.475207
     12          1           0       -7.871781    3.808023   14.283517
     13          6           0       -9.022268    4.654372    9.835683
     14          6           0       -8.291487    5.761713    9.592013
     15          1           0       -9.629725    4.247259    9.019648
     16          1           0       -8.257413    6.181254    8.584351
     17          1           0       -7.640515    6.226336   10.334354
     18          8           0       -0.985374   -1.783619    7.464707
     19          8           0       -8.406309   -1.334248    7.460967
     20          8           0       -7.034831    1.347511   10.474957
     21          8           0       -2.333074   -4.379954   10.553456
     22         74           0       -3.411127    0.697320    6.475747
     23         74           0       -5.997825   -3.818949    6.565524
     24         74           0       -3.620886    0.885463   11.421865
     25         74           0       -5.766161   -3.858226   11.475707
     26         74           0       -2.441226   -2.581979    6.398297
     27         74           0       -6.945787   -0.534369    6.369815
     28         74           0       -6.825680   -0.247226   11.564295
     29         74           0       -2.550467   -2.718487   11.606649
     30          8           0       -3.171500    1.885554    5.300838
     31          8           0       -6.135882   -5.068938    5.423682
     32          8           0       -2.704981    1.734583   12.574975
     33          8           0       -6.675395   -4.666219   12.661440
     34          8           0       -2.664789   -0.903555    5.582947
     35          8           0       -6.710601   -2.268054    5.623035
     36          8           0       -5.318466    0.557158   12.362276
     37          8           0       -4.052933   -3.521988   12.403444
     38          8           0        0.300779   -0.001483    9.280353
     39          8           0       -9.705701   -3.035798    9.325679
     40          8           0       -6.357370    3.426795    8.671329
     41          8           0       -2.995533   -6.479939    8.756236
     42          8           0       -1.790394    0.761861    7.474909
     43          8           0       -7.604591   -3.883883    7.547449
     44          8           0       -4.505695    2.208321   10.431776
     45          8           0       -4.873784   -5.223254   10.522993
     46          8           0       -1.608791   -3.527033    5.254817
     47          8           0       -7.833991    0.269108    5.179945
     48          8           0       -8.049623   -0.160801   12.739288
     49          8           0       -1.311828   -2.849208   12.763064
     50         74           0       -1.256703   -0.519816    8.836459
     51         74           0       -8.145474   -2.532690    8.874204
     52         74           0       -5.879945    1.854869    9.047881
     53         74           0       -3.487995   -4.905510    9.167123
     54          8           0       -4.218708   -3.104022    6.067373
     55          8           0       -5.162008   -0.052452    6.009193
     56          8           0       -6.174871   -1.994641   11.910101
     57          8           0       -3.170433   -0.972099   11.934456
     58          8           0       -4.362527    1.579372    7.835696
     59          8           0       -5.005321   -4.676353    7.920703
     60          8           0       -2.332625    0.581844   10.082626
     61          8           0       -7.056179   -3.611926   10.133818
     62          8           0       -2.572236   -3.895429    7.865945
     63          8           0       -6.816391    0.787638    7.806862
     64          8           0       -7.831339   -1.174772   10.139456
     65          8           0       -1.570032   -1.856080   10.138079
     66          8           0       -3.363796   -1.149521    8.002400
     67          8           0       -6.029054   -1.954609    8.033592
     68          8           0       -5.119865   -0.200210    9.947611
     69          8           0       -4.239668   -2.836707    9.975261
     70         19           0       -3.215387   -6.139197    5.645182
     71         19           0       -0.109231    0.057382   12.354030
     72         19           0       -9.291398   -2.869825   12.437530
     73         23           0       -4.690909   -1.530687    8.986854
 ---------------------------------------------------------------------

 SCF Done:  E(RwB97XD) =  -7327.70127901     A.U. after   19 cycles

 Alpha  occ. eigenvalues -- -197.29737-130.00168-130.00136-130.00054-101.47925
 Alpha  occ. eigenvalues --  -22.62831 -19.33759 -19.33746 -19.33730 -19.33714
 Alpha  occ. eigenvalues --  -19.30721 -19.30670 -19.30668 -19.30660 -19.30658
 Alpha  occ. eigenvalues --  -19.30655 -19.30644 -19.30599 -19.30518 -19.30363
 Alpha  occ. eigenvalues --  -19.30325 -19.30129 -19.29312 -19.29308 -19.29286
 Alpha  occ. eigenvalues --  -19.29277 -19.29268 -19.29266 -19.29230 -19.29187
 Alpha  occ. eigenvalues --  -19.29177 -19.29157 -19.29142 -19.29140 -19.29126
 Alpha  occ. eigenvalues --  -19.29113 -19.29088 -19.29077 -19.29070 -19.29056
 Alpha  occ. eigenvalues --  -19.29050 -19.28971 -19.28966 -19.28942 -19.28913
 Alpha  occ. eigenvalues --  -19.28827 -19.11792 -19.11783 -19.11774 -13.37575
 Alpha  occ. eigenvalues --  -13.37541 -13.37452 -10.70504 -10.70497 -10.70495
 Alpha  occ. eigenvalues --  -10.70470 -10.70463 -10.70462 -10.70383 -10.70376
 Alpha  occ. eigenvalues --  -10.70371 -10.29906 -10.29370 -10.29321 -10.29129
 Alpha  occ. eigenvalues --  -10.29055 -10.29024 -10.28261 -10.27809  -9.38382
 Alpha  occ. eigenvalues --   -7.13207  -7.13163  -7.13159  -3.23301  -3.23297
 Alpha  occ. eigenvalues --   -3.23286  -3.23280  -3.23279  -3.23265  -3.23249
 Alpha  occ. eigenvalues --   -3.23225  -3.23186  -3.22969  -3.22963  -3.22751
 Alpha  occ. eigenvalues --   -2.91997  -1.94352  -1.94322  -1.94315  -1.87708
 Alpha  occ. eigenvalues --   -1.87655  -1.87640  -1.87597  -1.87471  -1.87463
 Alpha  occ. eigenvalues --   -1.87450  -1.87429  -1.87393  -1.87273  -1.87238
 Alpha  occ. eigenvalues --   -1.87063  -1.86612  -1.86493  -1.86487  -1.86465
 Alpha  occ. eigenvalues --   -1.86443  -1.86416  -1.86331  -1.86319  -1.86298
 Alpha  occ. eigenvalues --   -1.86279  -1.86270  -1.86237  -1.86130  -1.86118
 Alpha  occ. eigenvalues --   -1.86112  -1.86092  -1.86036  -1.86001  -1.85973
 Alpha  occ. eigenvalues --   -1.85913  -1.85890  -1.85793  -1.85685  -1.85638
 Alpha  occ. eigenvalues --   -1.51254  -1.51226  -1.51141  -1.13120  -1.11363
 Alpha  occ. eigenvalues --   -1.11282  -1.11268  -1.08977  -1.08533  -1.08489
 Alpha  occ. eigenvalues --   -1.08279  -1.07575  -1.07521  -1.07508  -1.06898
 Alpha  occ. eigenvalues --   -1.06863  -1.06852  -1.06315  -1.06294  -1.05296
 Alpha  occ. eigenvalues --   -1.05284  -1.04971  -1.04959  -1.04949  -1.04173
 Alpha  occ. eigenvalues --   -1.04168  -1.04154  -1.04009  -1.03983  -1.03969
 Alpha  occ. eigenvalues --   -1.03926  -1.03886  -1.03866  -1.03742  -1.03700
 Alpha  occ. eigenvalues --   -1.03596  -1.03540  -1.03289  -1.03246  -1.03091
 Alpha  occ. eigenvalues --   -1.03078  -1.03017  -1.02940  -0.94424  -0.86715
 Alpha  occ. eigenvalues --   -0.86689  -0.86609  -0.86581  -0.86529  -0.86515
 Alpha  occ. eigenvalues --   -0.86499  -0.86496  -0.86423  -0.86393  -0.82848
 Alpha  occ. eigenvalues --   -0.79865  -0.71080  -0.69792  -0.68087  -0.64590
 Alpha  occ. eigenvalues --   -0.63947  -0.63908  -0.63902  -0.63363  -0.63333
 Alpha  occ. eigenvalues --   -0.63215  -0.63065  -0.62717  -0.62625  -0.62051
 Alpha  occ. eigenvalues --   -0.61628  -0.61615  -0.61523  -0.61227  -0.61209
 Alpha  occ. eigenvalues --   -0.61163  -0.60402  -0.59489  -0.59457  -0.59444
 Alpha  occ. eigenvalues --   -0.59424  -0.59383  -0.58680  -0.57981  -0.57960
 Alpha  occ. eigenvalues --   -0.57877  -0.57107  -0.57069  -0.57035  -0.56299
 Alpha  occ. eigenvalues --   -0.56262  -0.56092  -0.55686  -0.54849  -0.54781
 Alpha  occ. eigenvalues --   -0.54746  -0.54591  -0.54225  -0.54105  -0.54071
 Alpha  occ. eigenvalues --   -0.54012  -0.53949  -0.53211  -0.53175  -0.53045
 Alpha  occ. eigenvalues --   -0.52994  -0.52877  -0.52689  -0.52637  -0.52619
 Alpha  occ. eigenvalues --   -0.52572  -0.52541  -0.52470  -0.52451  -0.51577
 Alpha  occ. eigenvalues --   -0.51549  -0.51356  -0.51320  -0.51286  -0.51235
 Alpha  occ. eigenvalues --   -0.51174  -0.51161  -0.51010  -0.50724  -0.50542
 Alpha  occ. eigenvalues --   -0.50531  -0.50514  -0.49872  -0.49850  -0.49317
 Alpha  occ. eigenvalues --   -0.49275  -0.49244  -0.49195  -0.49148  -0.49048
 Alpha  occ. eigenvalues --   -0.48896  -0.48078  -0.48025  -0.47928  -0.47751
 Alpha  occ. eigenvalues --   -0.47362  -0.47279  -0.47228  -0.47007  -0.46932
 Alpha  occ. eigenvalues --   -0.46820  -0.46553  -0.46469  -0.46464  -0.46220
 Alpha  occ. eigenvalues --   -0.46158  -0.46109  -0.45640  -0.45082  -0.44904
 Alpha  occ. eigenvalues --   -0.44869  -0.44183  -0.44152  -0.44040  -0.43612
 Alpha  occ. eigenvalues --   -0.43276  -0.43223  -0.43105  -0.43084  -0.43046
 Alpha  occ. eigenvalues --   -0.42696  -0.42669  -0.42648  -0.42584  -0.42581
 Alpha  occ. eigenvalues --   -0.42495  -0.42448  -0.42433  -0.42270  -0.42255
 Alpha  occ. eigenvalues --   -0.42230  -0.42006  -0.41893  -0.41837  -0.41822
 Alpha  occ. eigenvalues --   -0.41241  -0.41149  -0.41131  -0.41009  -0.40533
 Alpha  occ. eigenvalues --   -0.40507  -0.40502  -0.40429  -0.39435  -0.39418
 Alpha  occ. eigenvalues --   -0.36991  -0.32565  -0.28988  -0.24757  -0.24737
 Alpha  occ. eigenvalues --   -0.23549
 Alpha virt. eigenvalues --   -0.09687  -0.09468  -0.08490  -0.08434  -0.07032
 Alpha virt. eigenvalues --   -0.07008  -0.06873  -0.04672  -0.04327  -0.04294
 Alpha virt. eigenvalues --   -0.03725  -0.03543  -0.03470  -0.03252  -0.03158

 Mulliken charges:
               1
     1  Cl  -0.920688
     2  C   -0.077326
     3  C    0.044531
     4  C   -0.075875
     5  C   -0.033668
     6  C   -0.032126
     7  C   -0.050029
     8  H    0.030490
     9  H    0.030721
    10  H    0.041603
    11  H    0.037607
    12  H    0.040432
    13  C   -0.110670
    14  C    0.015457
    15  H    0.023093
    16  H    0.042371
    17  H    0.030170
    18  O   -0.664032
    19  O   -0.662390
    20  O   -0.654861
    21  O   -0.663077
    22  W    1.737559
    23  W    1.675748
    24  W    1.685084
    25  W    1.695916
    26  W    1.677818
    27  W    1.729968
    28  W    1.621810
    29  W    1.686956
    30  O   -0.320296
    31  O   -0.365112
    32  O   -0.366485
    33  O   -0.361530
    34  O   -0.666190
    35  O   -0.671417
    36  O   -0.662364
    37  O   -0.664831
    38  O   -0.367918
    39  O   -0.365696
    40  O   -0.296216
    41  O   -0.365114
    42  O   -0.670506
    43  O   -0.663988
    44  O   -0.661562
    45  O   -0.666155
    46  O   -0.369066
    47  O   -0.320610
    48  O   -0.359830
    49  O   -0.362899
    50  W    1.675437
    51  W    1.679478
    52  W    1.685543
    53  W    1.686327
    54  O   -0.724527
    55  O   -0.709034
    56  O   -0.726446
    57  O   -0.722899
    58  O   -0.708380
    59  O   -0.727584
    60  O   -0.725337
    61  O   -0.721538
    62  O   -0.725342
    63  O   -0.710094
    64  O   -0.724016
    65  O   -0.727106
    66  O   -0.803677
    67  O   -0.802266
    68  O   -0.799628
    69  O   -0.808839
    70  K    0.865071
    71  K    0.866080
    72  K    0.862401
    73  V    1.191565
 Sum of Mulliken charges =  -1.00000

 Dipole moment (field-independent basis, Debye):
    X=             51.2876    Y=            -51.7909    Z=            -38.5926  Tot=             82.4749
 Quadrupole moment (field-independent basis, Debye-Ang):
   XX=          -1058.6374   YY=           -890.9727   ZZ=           -911.3614
   XY=            459.4007   XZ=            459.8984   YZ=           -484.2909

 Normal termination of Gaussian 16 at Sun Jun  2 09:23:25 2024.
