 Gaussian 16, Revision C.01,
 Gaussian 16:  ES64L-G16RevC.01  3-Jul-2019

 ----------------------------------------------------------------------
 # def2svp wb97xd scrf=(smd,solvent=acetonitrile) g09default scf=(xqc,m
 axcycle=64) force guess=read nosymm
 ----------------------------------------------------------------------

 ----------
 Title Card
 ----------
 Symbolic Z-matrix:
 Charge = -1 Multiplicity = 1

                          Input orientation:
 ---------------------------------------------------------------------
 Center     Atomic      Atomic             Coordinates (Angstroms)
 Number     Number       Type             X           Y           Z
 ---------------------------------------------------------------------
      1         17           0       -9.811621    8.227025   10.552273
      2          6           0       -8.327658    4.235044   12.222750
      3          6           0       -9.114512    3.920841   11.099740
      4          6           0      -10.030907    2.857724   11.208675
      5          6           0      -10.201484    2.177854   12.410534
      6          6           0       -9.447187    2.535121   13.529180
      7          6           0       -8.494487    3.550993   13.422962
      8          1           0       -7.571344    5.020035   12.155394
      9          1           0      -10.614448    2.566221   10.330814
     10          1           0      -10.917294    1.354642   12.473888
     11          1           0       -9.582736    2.006109   14.475207
     12          1           0       -7.871781    3.808023   14.283517
     13          6           0       -9.022268    4.654372    9.835683
     14          6           0       -8.291487    5.761713    9.592013
     15          1           0       -9.629725    4.247259    9.019648
     16          1           0       -8.257413    6.181254    8.584351
     17          1           0       -7.640515    6.226336   10.334354
     18          8           0       -0.985374   -1.783619    7.464707
     19          8           0       -8.406309   -1.334248    7.460967
     20          8           0       -7.034831    1.347511   10.474957
     21          8           0       -2.333074   -4.379954   10.553456
     22         74           0       -3.411127    0.697320    6.475747
     23         74           0       -5.997825   -3.818949    6.565524
     24         74           0       -3.620886    0.885463   11.421865
     25         74           0       -5.766161   -3.858226   11.475707
     26         74           0       -2.441226   -2.581979    6.398297
     27         74           0       -6.945787   -0.534369    6.369815
     28         74           0       -6.825680   -0.247226   11.564295
     29         74           0       -2.550467   -2.718487   11.606649
     30          8           0       -3.171500    1.885554    5.300838
     31          8           0       -6.135882   -5.068938    5.423682
     32          8           0       -2.704981    1.734583   12.574975
     33          8           0       -6.675395   -4.666219   12.661440
     34          8           0       -2.664789   -0.903555    5.582947
     35          8           0       -6.710601   -2.268054    5.623035
     36          8           0       -5.318466    0.557158   12.362276
     37          8           0       -4.052933   -3.521988   12.403444
     38          8           0        0.300779   -0.001483    9.280353
     39          8           0       -9.705701   -3.035798    9.325679
     40          8           0       -6.357370    3.426795    8.671329
     41          8           0       -2.995533   -6.479939    8.756236
     42          8           0       -1.790394    0.761861    7.474909
     43          8           0       -7.604591   -3.883883    7.547449
     44          8           0       -4.505695    2.208321   10.431776
     45          8           0       -4.873784   -5.223254   10.522993
     46          8           0       -1.608791   -3.527033    5.254817
     47          8           0       -7.833991    0.269108    5.179945
     48          8           0       -8.049623   -0.160801   12.739288
     49          8           0       -1.311828   -2.849208   12.763064
     50         74           0       -1.256703   -0.519816    8.836459
     51         74           0       -8.145474   -2.532690    8.874204
     52         74           0       -5.879945    1.854869    9.047881
     53         74           0       -3.487995   -4.905510    9.167123
     54          8           0       -4.218708   -3.104022    6.067373
     55          8           0       -5.162008   -0.052452    6.009193
     56          8           0       -6.174871   -1.994641   11.910101
     57          8           0       -3.170433   -0.972099   11.934456
     58          8           0       -4.362527    1.579372    7.835696
     59          8           0       -5.005321   -4.676353    7.920703
     60          8           0       -2.332625    0.581844   10.082626
     61          8           0       -7.056179   -3.611926   10.133818
     62          8           0       -2.572236   -3.895429    7.865945
     63          8           0       -6.816391    0.787638    7.806862
     64          8           0       -7.831339   -1.174772   10.139456
     65          8           0       -1.570032   -1.856080   10.138079
     66          8           0       -3.363796   -1.149521    8.002400
     67          8           0       -6.029054   -1.954609    8.033592
     68          8           0       -5.119865   -0.200210    9.947611
     69          8           0       -4.239668   -2.836707    9.975261
     70         19           0       -3.215387   -6.139197    5.645182
     71         19           0       -0.109231    0.057382   12.354030
     72         19           0       -9.291398   -2.869825   12.437530
     73         23           0       -4.690909   -1.530687    8.986854
 ---------------------------------------------------------------------

 SCF Done:  E(UwB97XD) =  -7327.70129564     A.U. after   38 cycles

 Alpha  occ. eigenvalues --  -19.24800 -18.94491 -18.93399 -18.93371 -13.36612
 Alpha  occ. eigenvalues --  -13.36531 -13.36528 -10.69539 -10.69535 -10.69533
 Alpha  occ. eigenvalues --  -10.69457 -10.69456 -10.69453 -10.69452 -10.69451
 Alpha  occ. eigenvalues --  -10.69447 -10.32846 -10.32055 -10.31860 -10.30915
 Alpha  occ. eigenvalues --  -10.30909 -10.30899 -10.30506 -10.30440  -9.52978
 Alpha  occ. eigenvalues --   -7.27869  -7.27508  -7.27505  -3.21105  -3.21059
 Alpha  occ. eigenvalues --   -3.21051  -3.21040  -3.21026  -3.21007  -3.20997
 Alpha  occ. eigenvalues --   -3.20995  -3.20988  -3.20877  -3.20845  -3.20822
 Alpha  occ. eigenvalues --   -2.79094  -1.85327  -1.85283  -1.85270  -1.85242
 Alpha  occ. eigenvalues --   -1.85117  -1.85063  -1.85048  -1.85028  -1.85013
 Alpha  occ. eigenvalues --   -1.85003  -1.84987  -1.84932  -1.84376  -1.84267
 Alpha  occ. eigenvalues --   -1.84249  -1.84242  -1.84207  -1.84196  -1.84133
 Alpha  occ. eigenvalues --   -1.84120  -1.84095  -1.84085  -1.84063  -1.84048
 Alpha  occ. eigenvalues --   -1.83936  -1.83901  -1.83877  -1.83873  -1.83842
 Alpha  occ. eigenvalues --   -1.83812  -1.83789  -1.83788  -1.83775  -1.83677
 Alpha  occ. eigenvalues --   -1.83666  -1.83659  -1.82222  -1.81887  -1.81865
 Alpha  occ. eigenvalues --   -1.50306  -1.50230  -1.50230  -1.08630  -1.07002
 Alpha  occ. eigenvalues --   -1.06957  -1.06925  -1.06016  -1.05997  -1.05954
 Alpha  occ. eigenvalues --   -1.04576  -1.04552  -1.04544  -1.03980  -1.03970
 Alpha  occ. eigenvalues --   -1.03778  -1.03377  -1.03354  -1.03328  -1.03019
 Alpha  occ. eigenvalues --   -1.02985  -1.02264  -1.02240  -1.02216  -1.02061
 Alpha  occ. eigenvalues --   -1.01993  -1.01958  -1.01894  -1.01868  -1.01767
 Alpha  occ. eigenvalues --   -1.01735  -1.01726  -1.01610  -1.01579  -1.01551
 Alpha  occ. eigenvalues --   -1.01282  -1.00827  -1.00733  -1.00684  -1.00680
 Alpha  occ. eigenvalues --   -1.00073  -1.00010  -0.99955  -0.96093  -0.89132
 Alpha  occ. eigenvalues --   -0.85741  -0.85673  -0.85668  -0.85595  -0.85579
 Alpha  occ. eigenvalues --   -0.85528  -0.85517  -0.85512  -0.85492  -0.84192
 Alpha  occ. eigenvalues --   -0.82334  -0.81257  -0.71831  -0.69560  -0.64980
 Alpha  occ. eigenvalues --   -0.62315  -0.61685  -0.61662  -0.61635  -0.60500
 Alpha  occ. eigenvalues --   -0.58963  -0.58938  -0.58926  -0.58863  -0.58807
 Alpha  occ. eigenvalues --   -0.58792  -0.58759  -0.58719  -0.58551  -0.57407
 Alpha  occ. eigenvalues --   -0.57370  -0.57347  -0.57057  -0.56640  -0.56509
 Alpha  occ. eigenvalues --   -0.56466  -0.56421  -0.56055  -0.55900  -0.55364
 Alpha  occ. eigenvalues --   -0.55348  -0.55321  -0.54380  -0.54159  -0.54140
 Alpha  occ. eigenvalues --   -0.53931  -0.53722  -0.53679  -0.53656  -0.52682
 Alpha  occ. eigenvalues --   -0.52591  -0.52585  -0.52478  -0.52436  -0.51471
 Alpha  occ. eigenvalues --   -0.51454  -0.51442  -0.51349  -0.51285  -0.50694
 Alpha  occ. eigenvalues --   -0.50531  -0.50523  -0.50463  -0.50368  -0.50271
 Alpha  occ. eigenvalues --   -0.50242  -0.50043  -0.49987  -0.49977  -0.49711
 Alpha  occ. eigenvalues --   -0.49621  -0.49573  -0.49484  -0.49448  -0.49294
 Alpha  occ. eigenvalues --   -0.49257  -0.49207  -0.49137  -0.49087  -0.49020
 Alpha  occ. eigenvalues --   -0.48661  -0.48501  -0.48474  -0.48426  -0.47651
 Alpha  occ. eigenvalues --   -0.47620  -0.47123  -0.46477  -0.46043  -0.46014
 Alpha  occ. eigenvalues --   -0.45879  -0.45756  -0.45709  -0.45593  -0.45202
 Alpha  occ. eigenvalues --   -0.45138  -0.45122  -0.44775  -0.44595  -0.44491
 Alpha  occ. eigenvalues --   -0.44475  -0.44449  -0.44298  -0.44201  -0.44166
 Alpha  occ. eigenvalues --   -0.43482  -0.43005  -0.42555  -0.42510  -0.42441
 Alpha  occ. eigenvalues --   -0.42338  -0.42190  -0.42176  -0.42085  -0.41628
 Alpha  occ. eigenvalues --   -0.41617  -0.41573  -0.41016  -0.40972  -0.40769
 Alpha  occ. eigenvalues --   -0.40745  -0.40730  -0.40365  -0.40350  -0.40303
 Alpha  occ. eigenvalues --   -0.40193  -0.40161  -0.40135  -0.40110  -0.39838
 Alpha  occ. eigenvalues --   -0.39355  -0.39273  -0.39262  -0.39132  -0.39085
 Alpha  occ. eigenvalues --   -0.38901  -0.38882  -0.38823  -0.38790  -0.38703
 Alpha  occ. eigenvalues --   -0.38290  -0.38260  -0.38221  -0.37892  -0.37198
 Alpha  occ. eigenvalues --   -0.37175  -0.35011  -0.34994  -0.33582  -0.29971
 Alpha  occ. eigenvalues --   -0.26097
 Alpha virt. eigenvalues --   -0.12502  -0.06363  -0.06312  -0.04882  -0.04838
 Alpha virt. eigenvalues --   -0.04696  -0.01533  -0.01411  -0.01348  -0.01146
 Alpha virt. eigenvalues --   -0.00929  -0.00928  -0.00882  -0.00145  -0.00090

  Beta  occ. eigenvalues -- -197.11260-129.99199-129.99124-129.99119-101.62986
  Beta  occ. eigenvalues --  -22.43646 -19.28524 -19.28501 -19.28451 -19.28374
  Beta  occ. eigenvalues --  -19.28371 -19.28344 -19.28339 -19.28334 -19.28319
  Beta  occ. eigenvalues --  -19.28265 -19.28212 -19.28138 -19.26936 -19.26891
  Beta  occ. eigenvalues --  -19.26888 -19.26882 -19.26856 -19.26841 -19.26825
  Beta  occ. eigenvalues --  -19.26822 -19.26812 -19.26787 -19.26776 -19.26769
  Beta  occ. eigenvalues --  -19.26763 -19.26762 -19.26758 -19.26747 -19.26745
  Beta  occ. eigenvalues --  -19.26735 -19.26731 -19.26730 -19.26723 -19.26703
  Beta  occ. eigenvalues --  -19.26651 -19.26585 -19.24869 -19.24845 -19.24808
  Beta  occ. eigenvalues --  -19.24775 -18.94145 -18.91947 -18.91892 -13.36612
  Beta  occ. eigenvalues --  -13.36531 -13.36528 -10.69539 -10.69535 -10.69533
  Beta  occ. eigenvalues --  -10.69457 -10.69456 -10.69453 -10.69452 -10.69451
  Beta  occ. eigenvalues --  -10.69447 -10.33084 -10.32189 -10.31818 -10.31024
  Beta  occ. eigenvalues --  -10.31002 -10.30988 -10.30454 -10.30387  -9.53442
  Beta  occ. eigenvalues --   -7.29332  -7.27826  -7.27822  -3.21105  -3.21053
  Beta  occ. eigenvalues --   -3.21050  -3.21040  -3.21020  -3.21002  -3.20992
  Beta  occ. eigenvalues --   -3.20989  -3.20982  -3.20876  -3.20841  -3.20817
  Beta  occ. eigenvalues --   -2.75022  -1.85323  -1.85278  -1.85265  -1.85234
  Beta  occ. eigenvalues --   -1.85111  -1.85058  -1.85043  -1.85023  -1.85005
  Beta  occ. eigenvalues --   -1.84993  -1.84981  -1.84924  -1.84373  -1.84265
  Beta  occ. eigenvalues --   -1.84246  -1.84240  -1.84204  -1.84193  -1.84130
  Beta  occ. eigenvalues --   -1.84118  -1.84091  -1.84082  -1.84061  -1.84045
  Beta  occ. eigenvalues --   -1.83934  -1.83898  -1.83875  -1.83870  -1.83840
  Beta  occ. eigenvalues --   -1.83809  -1.83786  -1.83785  -1.83772  -1.83675
  Beta  occ. eigenvalues --   -1.83663  -1.83657  -1.80877  -1.76173  -1.76050
  Beta  occ. eigenvalues --   -1.50306  -1.50230  -1.50230  -1.08612  -1.06983
  Beta  occ. eigenvalues --   -1.06933  -1.06897  -1.06014  -1.05994  -1.05954
  Beta  occ. eigenvalues --   -1.04577  -1.04551  -1.04545  -1.03981  -1.03971
  Beta  occ. eigenvalues --   -1.03711  -1.03345  -1.03313  -1.03289  -1.03018
  Beta  occ. eigenvalues --   -1.02978  -1.02245  -1.02217  -1.02198  -1.02052
  Beta  occ. eigenvalues --   -1.01988  -1.01946  -1.01889  -1.01854  -1.01763
  Beta  occ. eigenvalues --   -1.01732  -1.01723  -1.01607  -1.01577  -1.01535
  Beta  occ. eigenvalues --   -1.01282  -1.00789  -1.00733  -1.00684  -1.00680
  Beta  occ. eigenvalues --   -0.99941  -0.99890  -0.99837  -0.96296  -0.89741
  Beta  occ. eigenvalues --   -0.85741  -0.85673  -0.85668  -0.85595  -0.85579
  Beta  occ. eigenvalues --   -0.85528  -0.85517  -0.85512  -0.85492  -0.84909
  Beta  occ. eigenvalues --   -0.84285  -0.82658  -0.72069  -0.69672  -0.65200
  Beta  occ. eigenvalues --   -0.62315  -0.61684  -0.61662  -0.61635  -0.60682
  Beta  occ. eigenvalues --   -0.58954  -0.58936  -0.58925  -0.58794  -0.58781
  Beta  occ. eigenvalues --   -0.58751  -0.58733  -0.58667  -0.58551  -0.57373
  Beta  occ. eigenvalues --   -0.57220  -0.57178  -0.57003  -0.56809  -0.56513
  Beta  occ. eigenvalues --   -0.56432  -0.56385  -0.55856  -0.55645  -0.55346
  Beta  occ. eigenvalues --   -0.55328  -0.55324  -0.54552  -0.54152  -0.54130
  Beta  occ. eigenvalues --   -0.53919  -0.53680  -0.53656  -0.53617  -0.52720
  Beta  occ. eigenvalues --   -0.52624  -0.52575  -0.52457  -0.52430  -0.51446
  Beta  occ. eigenvalues --   -0.51433  -0.51427  -0.51276  -0.51218  -0.50847
  Beta  occ. eigenvalues --   -0.50493  -0.50464  -0.50425  -0.50310  -0.50227
  Beta  occ. eigenvalues --   -0.50145  -0.50011  -0.49983  -0.49950  -0.49657
  Beta  occ. eigenvalues --   -0.49595  -0.49542  -0.49475  -0.49437  -0.49294
  Beta  occ. eigenvalues --   -0.49234  -0.49205  -0.49107  -0.49073  -0.48998
  Beta  occ. eigenvalues --   -0.48654  -0.48504  -0.48469  -0.48418  -0.47761
  Beta  occ. eigenvalues --   -0.47583  -0.47543  -0.45914  -0.45896  -0.45823
  Beta  occ. eigenvalues --   -0.45809  -0.45667  -0.45555  -0.45202  -0.45160
  Beta  occ. eigenvalues --   -0.45126  -0.45046  -0.44774  -0.44594  -0.44476
  Beta  occ. eigenvalues --   -0.44420  -0.44417  -0.44282  -0.44180  -0.44151
  Beta  occ. eigenvalues --   -0.43477  -0.43103  -0.42495  -0.42466  -0.42398
  Beta  occ. eigenvalues --   -0.42266  -0.42163  -0.42153  -0.42137  -0.41611
  Beta  occ. eigenvalues --   -0.41596  -0.41549  -0.41285  -0.41022  -0.40925
  Beta  occ. eigenvalues --   -0.40746  -0.40701  -0.40644  -0.40350  -0.40340
  Beta  occ. eigenvalues --   -0.40285  -0.40147  -0.40123  -0.40112  -0.39782
  Beta  occ. eigenvalues --   -0.39628  -0.39356  -0.39168  -0.39114  -0.39095
  Beta  occ. eigenvalues --   -0.38898  -0.38857  -0.38836  -0.38793  -0.38731
  Beta  occ. eigenvalues --   -0.38680  -0.38293  -0.38256  -0.38218  -0.38001
  Beta  occ. eigenvalues --   -0.37200  -0.37170  -0.35990  -0.35973  -0.33831
  Beta  occ. eigenvalues --   -0.30854
  Beta virt. eigenvalues --   -0.06361  -0.06312  -0.04881  -0.04837  -0.04696
  Beta virt. eigenvalues --   -0.01528  -0.01406  -0.01343  -0.01140  -0.00925
  Beta virt. eigenvalues --   -0.00923  -0.00877  -0.00133  -0.00076  -0.00041

 Mulliken charges and spin densities:
               1          2
     1  Cl  -0.334054  -0.635150
     2  C   -0.036383  -0.085270
     3  C    0.014181   0.047583
     4  C   -0.035351  -0.081514
     5  C   -0.031377   0.052237
     6  C    0.006107  -0.104345
     7  C   -0.048448   0.052252
     8  H    0.049170   0.003742
     9  H    0.050286   0.003509
    10  H    0.055204  -0.001843
    11  H    0.055995   0.004584
    12  H    0.053828  -0.001824
    13  C    0.000954  -0.219616
    14  C   -0.044740  -0.045616
    15  H    0.073685   0.009283
    16  H    0.094865   0.002939
    17  H    0.087399   0.001341
    18  O   -0.672957  -0.000577
    19  O   -0.671322  -0.000523
    20  O   -0.666191  -0.001702
    21  O   -0.672159  -0.000540
    22  W    1.721211   0.000361
    23  W    1.661628   0.000486
    24  W    1.672644   0.000185
    25  W    1.682157   0.000201
    26  W    1.664272   0.002674
    27  W    1.712486   0.002412
    28  W    1.613409   0.003278
    29  W    1.672701   0.002817
    30  O   -0.350257  -0.000544
    31  O   -0.393518  -0.000563
    32  O   -0.394906  -0.000613
    33  O   -0.390319  -0.000563
    34  O   -0.674615  -0.000306
    35  O   -0.678944  -0.000058
    36  O   -0.671432  -0.000142
    37  O   -0.673742  -0.000236
    38  O   -0.397638   0.002017
    39  O   -0.395747   0.002042
    40  O   -0.339948  -0.000188
    41  O   -0.395150   0.002011
    42  O   -0.678360   0.000064
    43  O   -0.672707   0.000147
    44  O   -0.670202   0.000278
    45  O   -0.674673   0.000100
    46  O   -0.398980   0.002296
    47  O   -0.352379   0.002212
    48  O   -0.392685   0.001842
    49  O   -0.393094   0.002391
    50  W    1.661382   0.002653
    51  W    1.665208   0.002546
    52  W    1.678980   0.003652
    53  W    1.671858   0.002475
    54  O   -0.722589   0.000099
    55  O   -0.707563   0.000013
    56  O   -0.723156   0.000164
    57  O   -0.721322   0.000056
    58  O   -0.706124   0.000024
    59  O   -0.724808   0.000140
    60  O   -0.722874   0.000191
    61  O   -0.719329   0.000183
    62  O   -0.723831  -0.000178
    63  O   -0.708775  -0.000039
    64  O   -0.723006  -0.000203
    65  O   -0.724931  -0.000214
    66  O   -0.886353   0.004873
    67  O   -0.885762   0.007085
    68  O   -0.883123   0.006792
    69  O   -0.889299   0.006381
    70  K    0.851568   0.000183
    71  K    0.852948   0.000201
    72  K    0.848846   0.000215
    73  V    1.202151   0.939155
 Sum of Mulliken charges =  -1.00000   0.00000

 Dipole moment (field-independent basis, Debye):
    X=             28.7830    Y=            -13.7057    Z=            -30.5144  Tot=             44.1298
 Quadrupole moment (field-independent basis, Debye-Ang):
   XX=           -768.8764   YY=           -706.1028   ZZ=           -777.5036
   XY=            129.6877   XZ=            180.6750   YZ=            -93.3246

 Normal termination of Gaussian 16 at Sun Jun  2 09:09:28 2024.
