 Gaussian 16, Revision C.01,
 Gaussian 16:  ES64L-G16RevC.01  3-Jul-2019

 ----------------------------------------------------------------------
 # def2svp wb97xd scrf=(smd,solvent=acetonitrile) g09default scf=(xqc,m
 axcycle=64) force guess=read nosymm
 ----------------------------------------------------------------------

 ----------
 Title Card
 ----------
 Symbolic Z-matrix:
 Charge = -1 Multiplicity = 1

                          Input orientation:
 ---------------------------------------------------------------------
 Center     Atomic      Atomic             Coordinates (Angstroms)
 Number     Number       Type             X           Y           Z
 ---------------------------------------------------------------------
      1         17           0       -9.798187    8.236931   10.553943
      2          6           0       -8.328743    4.235533   12.222213
      3          6           0       -9.117158    3.921891   11.099910
      4          6           0      -10.032343    2.857691   11.209306
      5          6           0      -10.201788    2.177571   12.411137
      6          6           0       -9.447272    2.535421   13.529512
      7          6           0       -8.494557    3.551134   13.422409
      8          1           0       -7.571744    5.019780   12.154293
      9          1           0      -10.616311    2.565560   10.331947
     10          1           0      -10.917392    1.354280   12.474906
     11          1           0       -9.583161    2.007388   14.476010
     12          1           0       -7.871302    3.808119   14.282559
     13          6           0       -9.027685    4.656491    9.836378
     14          6           0       -8.302516    5.768033    9.593631
     15          1           0       -9.631678    4.245994    9.019424
     16          1           0       -8.270338    6.188255    8.586279
     17          1           0       -7.654891    6.235912   10.336622
     18          8           0       -0.984214   -1.785102    7.465107
     19          8           0       -8.405410   -1.334350    7.460907
     20          8           0       -7.033690    1.347635   10.474450
     21          8           0       -2.333267   -4.381689   10.553417
     22         74           0       -3.410620    0.695834    6.475156
     23         74           0       -5.996892   -3.818460    6.564795
     24         74           0       -3.619904    0.883551   11.422165
     25         74           0       -5.765705   -3.858293   11.476313
     26         74           0       -2.439712   -2.583657    6.398944
     27         74           0       -6.945485   -0.534227    6.370716
     28         74           0       -6.825554   -0.247268   11.563582
     29         74           0       -2.549165   -2.720176   11.605858
     30          8           0       -3.171297    1.883217    5.299491
     31          8           0       -6.134345   -5.069031    5.422856
     32          8           0       -2.703078    1.732010   12.574827
     33          8           0       -6.675952   -4.665093   12.661925
     34          8           0       -2.663491   -0.905354    5.583294
     35          8           0       -6.709763   -2.267817    5.622896
     36          8           0       -5.317874    0.556408   12.362035
     37          8           0       -4.052397   -3.522591   12.403353
     38          8           0        0.301386   -0.002334    9.281167
     39          8           0       -9.704434   -3.036586    9.326383
     40          8           0       -6.355490    3.427183    8.670949
     41          8           0       -2.997189   -6.481437    8.754975
     42          8           0       -1.789616    0.760583    7.474822
     43          8           0       -7.603748   -3.884013    7.546896
     44          8           0       -4.504212    2.206965   10.431447
     45          8           0       -4.874107   -5.223945   10.523318
     46          8           0       -1.607673   -3.529719    5.255923
     47          8           0       -7.833106    0.270672    5.180484
     48          8           0       -8.049841   -0.161968   12.737971
     49          8           0       -1.310168   -2.849938   12.761838
     50         74           0       -1.255879   -0.520560    8.836402
     51         74           0       -8.144264   -2.533623    8.874184
     52         74           0       -5.878274    1.855699    9.047433
     53         74           0       -3.488873   -4.906964    9.166774
     54          8           0       -4.217646   -3.104909    6.067554
     55          8           0       -5.161062   -0.053474    6.009555
     56          8           0       -6.174539   -1.994786   11.909638
     57          8           0       -3.170003   -0.973571   11.933989
     58          8           0       -4.361564    1.579671    7.834722
     59          8           0       -5.005227   -4.676832    7.920643
     60          8           0       -2.331742    0.580368   10.082538
     61          8           0       -7.055360   -3.612237   10.133490
     62          8           0       -2.571583   -3.897348    7.865967
     63          8           0       -6.815501    0.788573    7.806330
     64          8           0       -7.830890   -1.175005   10.139179
     65          8           0       -1.568923   -1.857311   10.138129
     66          8           0       -3.362741   -1.150548    8.002633
     67          8           0       -6.028366   -1.954919    8.033575
     68          8           0       -5.119507   -0.200790    9.947167
     69          8           0       -4.239021   -2.837790    9.975009
     70         19           0       -3.214776   -6.138920    5.644957
     71         19           0       -0.108477    0.057431   12.352898
     72         19           0       -9.291280   -2.865972   12.437621
     73         23           0       -4.690204   -1.531587    8.986754
 ---------------------------------------------------------------------

 SCF Done:  E(RwB97XD) =  -7327.70131950     A.U. after   12 cycles

 Alpha  occ. eigenvalues -- -197.29736-130.00162-130.00126-130.00046-101.47949
 Alpha  occ. eigenvalues --  -22.62830 -19.33756 -19.33745 -19.33737 -19.33707
 Alpha  occ. eigenvalues --  -19.30717 -19.30672 -19.30669 -19.30663 -19.30660
 Alpha  occ. eigenvalues --  -19.30658 -19.30646 -19.30602 -19.30523 -19.30368
 Alpha  occ. eigenvalues --  -19.30320 -19.30143 -19.29316 -19.29305 -19.29289
 Alpha  occ. eigenvalues --  -19.29278 -19.29270 -19.29266 -19.29232 -19.29187
 Alpha  occ. eigenvalues --  -19.29179 -19.29156 -19.29145 -19.29138 -19.29126
 Alpha  occ. eigenvalues --  -19.29111 -19.29091 -19.29074 -19.29069 -19.29059
 Alpha  occ. eigenvalues --  -19.29046 -19.28973 -19.28965 -19.28945 -19.28916
 Alpha  occ. eigenvalues --  -19.28826 -19.11790 -19.11782 -19.11773 -13.37569
 Alpha  occ. eigenvalues --  -13.37531 -13.37444 -10.70498 -10.70491 -10.70489
 Alpha  occ. eigenvalues --  -10.70461 -10.70454 -10.70453 -10.70374 -10.70368
 Alpha  occ. eigenvalues --  -10.70363 -10.29909 -10.29369 -10.29320 -10.29127
 Alpha  occ. eigenvalues --  -10.29054 -10.29025 -10.28256 -10.27805  -9.38407
 Alpha  occ. eigenvalues --   -7.13232  -7.13189  -7.13183  -3.23304  -3.23300
 Alpha  occ. eigenvalues --   -3.23289  -3.23284  -3.23281  -3.23266  -3.23251
 Alpha  occ. eigenvalues --   -3.23231  -3.23189  -3.22972  -3.22968  -3.22756
 Alpha  occ. eigenvalues --   -2.91996  -1.94351  -1.94321  -1.94313  -1.87710
 Alpha  occ. eigenvalues --   -1.87657  -1.87641  -1.87601  -1.87473  -1.87465
 Alpha  occ. eigenvalues --   -1.87452  -1.87431  -1.87398  -1.87276  -1.87236
 Alpha  occ. eigenvalues --   -1.87075  -1.86615  -1.86495  -1.86489  -1.86468
 Alpha  occ. eigenvalues --   -1.86446  -1.86417  -1.86333  -1.86322  -1.86302
 Alpha  occ. eigenvalues --   -1.86283  -1.86272  -1.86239  -1.86133  -1.86121
 Alpha  occ. eigenvalues --   -1.86114  -1.86096  -1.86038  -1.86004  -1.85977
 Alpha  occ. eigenvalues --   -1.85916  -1.85895  -1.85797  -1.85689  -1.85642
 Alpha  occ. eigenvalues --   -1.51249  -1.51217  -1.51133  -1.13119  -1.11361
 Alpha  occ. eigenvalues --   -1.11282  -1.11269  -1.08978  -1.08534  -1.08490
 Alpha  occ. eigenvalues --   -1.08281  -1.07575  -1.07522  -1.07507  -1.06899
 Alpha  occ. eigenvalues --   -1.06864  -1.06854  -1.06316  -1.06296  -1.05296
 Alpha  occ. eigenvalues --   -1.05285  -1.04971  -1.04960  -1.04950  -1.04174
 Alpha  occ. eigenvalues --   -1.04168  -1.04156  -1.04007  -1.03986  -1.03971
 Alpha  occ. eigenvalues --   -1.03926  -1.03889  -1.03869  -1.03743  -1.03703
 Alpha  occ. eigenvalues --   -1.03598  -1.03541  -1.03294  -1.03237  -1.03097
 Alpha  occ. eigenvalues --   -1.03082  -1.03017  -1.02946  -0.94421  -0.86710
 Alpha  occ. eigenvalues --   -0.86681  -0.86602  -0.86577  -0.86524  -0.86509
 Alpha  occ. eigenvalues --   -0.86491  -0.86487  -0.86417  -0.86385  -0.82847
 Alpha  occ. eigenvalues --   -0.79861  -0.71110  -0.69788  -0.68083  -0.64593
 Alpha  occ. eigenvalues --   -0.63951  -0.63909  -0.63904  -0.63361  -0.63333
 Alpha  occ. eigenvalues --   -0.63213  -0.63061  -0.62717  -0.62624  -0.62051
 Alpha  occ. eigenvalues --   -0.61629  -0.61616  -0.61524  -0.61230  -0.61213
 Alpha  occ. eigenvalues --   -0.61164  -0.60403  -0.59490  -0.59461  -0.59447
 Alpha  occ. eigenvalues --   -0.59425  -0.59383  -0.58673  -0.57983  -0.57961
 Alpha  occ. eigenvalues --   -0.57877  -0.57106  -0.57067  -0.57034  -0.56301
 Alpha  occ. eigenvalues --   -0.56264  -0.56095  -0.55688  -0.54850  -0.54783
 Alpha  occ. eigenvalues --   -0.54749  -0.54589  -0.54227  -0.54105  -0.54073
 Alpha  occ. eigenvalues --   -0.54013  -0.53950  -0.53212  -0.53178  -0.53046
 Alpha  occ. eigenvalues --   -0.52998  -0.52880  -0.52690  -0.52637  -0.52620
 Alpha  occ. eigenvalues --   -0.52571  -0.52542  -0.52470  -0.52453  -0.51579
 Alpha  occ. eigenvalues --   -0.51552  -0.51355  -0.51320  -0.51285  -0.51235
 Alpha  occ. eigenvalues --   -0.51176  -0.51165  -0.51005  -0.50727  -0.50542
 Alpha  occ. eigenvalues --   -0.50537  -0.50516  -0.49871  -0.49849  -0.49317
 Alpha  occ. eigenvalues --   -0.49278  -0.49246  -0.49198  -0.49150  -0.49050
 Alpha  occ. eigenvalues --   -0.48897  -0.48079  -0.48027  -0.47929  -0.47752
 Alpha  occ. eigenvalues --   -0.47364  -0.47279  -0.47230  -0.47007  -0.46931
 Alpha  occ. eigenvalues --   -0.46820  -0.46553  -0.46469  -0.46465  -0.46219
 Alpha  occ. eigenvalues --   -0.46158  -0.46110  -0.45639  -0.45083  -0.44906
 Alpha  occ. eigenvalues --   -0.44870  -0.44187  -0.44152  -0.44039  -0.43607
 Alpha  occ. eigenvalues --   -0.43274  -0.43223  -0.43105  -0.43084  -0.43049
 Alpha  occ. eigenvalues --   -0.42696  -0.42669  -0.42649  -0.42584  -0.42581
 Alpha  occ. eigenvalues --   -0.42494  -0.42449  -0.42433  -0.42270  -0.42255
 Alpha  occ. eigenvalues --   -0.42232  -0.42006  -0.41893  -0.41839  -0.41823
 Alpha  occ. eigenvalues --   -0.41240  -0.41148  -0.41131  -0.41008  -0.40534
 Alpha  occ. eigenvalues --   -0.40508  -0.40500  -0.40427  -0.39436  -0.39419
 Alpha  occ. eigenvalues --   -0.36994  -0.32564  -0.29001  -0.24778  -0.24758
 Alpha  occ. eigenvalues --   -0.23556
 Alpha virt. eigenvalues --   -0.09688  -0.09466  -0.08499  -0.08441  -0.07040
 Alpha virt. eigenvalues --   -0.07016  -0.06881  -0.04675  -0.04327  -0.04292
 Alpha virt. eigenvalues --   -0.03728  -0.03542  -0.03472  -0.03256  -0.03161

 Mulliken charges:
               1
     1  Cl  -0.919116
     2  C   -0.077329
     3  C    0.044916
     4  C   -0.075994
     5  C   -0.033712
     6  C   -0.032246
     7  C   -0.050054
     8  H    0.030573
     9  H    0.030697
    10  H    0.041597
    11  H    0.037586
    12  H    0.040431
    13  C   -0.111923
    14  C    0.015719
    15  H    0.023137
    16  H    0.042203
    17  H    0.029666
    18  O   -0.664054
    19  O   -0.662546
    20  O   -0.655007
    21  O   -0.663230
    22  W    1.737642
    23  W    1.676197
    24  W    1.685387
    25  W    1.696244
    26  W    1.677901
    27  W    1.730151
    28  W    1.621841
    29  W    1.687258
    30  O   -0.320149
    31  O   -0.365431
    32  O   -0.366508
    33  O   -0.361381
    34  O   -0.666242
    35  O   -0.671420
    36  O   -0.662437
    37  O   -0.664951
    38  O   -0.368017
    39  O   -0.365722
    40  O   -0.295957
    41  O   -0.365150
    42  O   -0.670588
    43  O   -0.663995
    44  O   -0.661777
    45  O   -0.666211
    46  O   -0.369200
    47  O   -0.321041
    48  O   -0.360010
    49  O   -0.362779
    50  W    1.675712
    51  W    1.679902
    52  W    1.685696
    53  W    1.686624
    54  O   -0.724638
    55  O   -0.709113
    56  O   -0.726501
    57  O   -0.723034
    58  O   -0.708375
    59  O   -0.727658
    60  O   -0.725388
    61  O   -0.721604
    62  O   -0.725400
    63  O   -0.710093
    64  O   -0.724077
    65  O   -0.727166
    66  O   -0.803623
    67  O   -0.802489
    68  O   -0.799305
    69  O   -0.808776
    70  K    0.864832
    71  K    0.865876
    72  K    0.862197
    73  V    1.191428
 Sum of Mulliken charges =  -1.00000

 Dipole moment (field-independent basis, Debye):
    X=             51.2217    Y=            -51.7708    Z=            -38.5858  Tot=             82.4181
 Quadrupole moment (field-independent basis, Debye-Ang):
   XX=          -1057.3457   YY=           -891.5125   ZZ=           -911.2936
   XY=            458.8018   XZ=            459.1620   YZ=           -484.1835

 Normal termination of Gaussian 16 at Sun Jun  2 10:00:57 2024.
