 Gaussian 16, Revision C.01,
 Gaussian 16:  ES64L-G16RevC.01  3-Jul-2019

 ----------------------------------------------------------------------
 # def2svp wb97xd scrf=(smd,solvent=acetonitrile) g09default scf=(xqc,m
 axcycle=64) force guess=read nosymm
 ----------------------------------------------------------------------

 ----------
 Title Card
 ----------
 Symbolic Z-matrix:
 Charge = -1 Multiplicity = 1

                          Input orientation:
 ---------------------------------------------------------------------
 Center     Atomic      Atomic             Coordinates (Angstroms)
 Number     Number       Type             X           Y           Z
 ---------------------------------------------------------------------
      1         17           0       -9.798187    8.236931   10.553943
      2          6           0       -8.328743    4.235533   12.222213
      3          6           0       -9.117158    3.921891   11.099910
      4          6           0      -10.032343    2.857691   11.209306
      5          6           0      -10.201788    2.177571   12.411137
      6          6           0       -9.447272    2.535421   13.529512
      7          6           0       -8.494557    3.551134   13.422409
      8          1           0       -7.571744    5.019780   12.154293
      9          1           0      -10.616311    2.565560   10.331947
     10          1           0      -10.917392    1.354280   12.474906
     11          1           0       -9.583161    2.007388   14.476010
     12          1           0       -7.871302    3.808119   14.282559
     13          6           0       -9.027685    4.656491    9.836378
     14          6           0       -8.302516    5.768033    9.593631
     15          1           0       -9.631678    4.245994    9.019424
     16          1           0       -8.270338    6.188255    8.586279
     17          1           0       -7.654891    6.235912   10.336622
     18          8           0       -0.984214   -1.785102    7.465107
     19          8           0       -8.405410   -1.334350    7.460907
     20          8           0       -7.033690    1.347635   10.474450
     21          8           0       -2.333267   -4.381689   10.553417
     22         74           0       -3.410620    0.695834    6.475156
     23         74           0       -5.996892   -3.818460    6.564795
     24         74           0       -3.619904    0.883551   11.422165
     25         74           0       -5.765705   -3.858293   11.476313
     26         74           0       -2.439712   -2.583657    6.398944
     27         74           0       -6.945485   -0.534227    6.370716
     28         74           0       -6.825554   -0.247268   11.563582
     29         74           0       -2.549165   -2.720176   11.605858
     30          8           0       -3.171297    1.883217    5.299491
     31          8           0       -6.134345   -5.069031    5.422856
     32          8           0       -2.703078    1.732010   12.574827
     33          8           0       -6.675952   -4.665093   12.661925
     34          8           0       -2.663491   -0.905354    5.583294
     35          8           0       -6.709763   -2.267817    5.622896
     36          8           0       -5.317874    0.556408   12.362035
     37          8           0       -4.052397   -3.522591   12.403353
     38          8           0        0.301386   -0.002334    9.281167
     39          8           0       -9.704434   -3.036586    9.326383
     40          8           0       -6.355490    3.427183    8.670949
     41          8           0       -2.997189   -6.481437    8.754975
     42          8           0       -1.789616    0.760583    7.474822
     43          8           0       -7.603748   -3.884013    7.546896
     44          8           0       -4.504212    2.206965   10.431447
     45          8           0       -4.874107   -5.223945   10.523318
     46          8           0       -1.607673   -3.529719    5.255923
     47          8           0       -7.833106    0.270672    5.180484
     48          8           0       -8.049841   -0.161968   12.737971
     49          8           0       -1.310168   -2.849938   12.761838
     50         74           0       -1.255879   -0.520560    8.836402
     51         74           0       -8.144264   -2.533623    8.874184
     52         74           0       -5.878274    1.855699    9.047433
     53         74           0       -3.488873   -4.906964    9.166774
     54          8           0       -4.217646   -3.104909    6.067554
     55          8           0       -5.161062   -0.053474    6.009555
     56          8           0       -6.174539   -1.994786   11.909638
     57          8           0       -3.170003   -0.973571   11.933989
     58          8           0       -4.361564    1.579671    7.834722
     59          8           0       -5.005227   -4.676832    7.920643
     60          8           0       -2.331742    0.580368   10.082538
     61          8           0       -7.055360   -3.612237   10.133490
     62          8           0       -2.571583   -3.897348    7.865967
     63          8           0       -6.815501    0.788573    7.806330
     64          8           0       -7.830890   -1.175005   10.139179
     65          8           0       -1.568923   -1.857311   10.138129
     66          8           0       -3.362741   -1.150548    8.002633
     67          8           0       -6.028366   -1.954919    8.033575
     68          8           0       -5.119507   -0.200790    9.947167
     69          8           0       -4.239021   -2.837790    9.975009
     70         19           0       -3.214776   -6.138920    5.644957
     71         19           0       -0.108477    0.057431   12.352898
     72         19           0       -9.291280   -2.865972   12.437621
     73         23           0       -4.690204   -1.531587    8.986754
 ---------------------------------------------------------------------

 SCF Done:  E(UwB97XD) =  -7327.70135986     A.U. after   38 cycles

 Alpha  occ. eigenvalues --  -19.24809 -18.94489 -18.93396 -18.93370 -13.36606
 Alpha  occ. eigenvalues --  -13.36521 -13.36519 -10.69532 -10.69528 -10.69527
 Alpha  occ. eigenvalues --  -10.69447 -10.69447 -10.69444 -10.69442 -10.69442
 Alpha  occ. eigenvalues --  -10.69438 -10.32861 -10.32064 -10.31873 -10.30924
 Alpha  occ. eigenvalues --  -10.30919 -10.30907 -10.30512 -10.30446  -9.52961
 Alpha  occ. eigenvalues --   -7.27852  -7.27492  -7.27488  -3.21107  -3.21062
 Alpha  occ. eigenvalues --   -3.21056  -3.21041  -3.21028  -3.21011  -3.21003
 Alpha  occ. eigenvalues --   -3.20998  -3.20990  -3.20880  -3.20849  -3.20828
 Alpha  occ. eigenvalues --   -2.79092  -1.85331  -1.85285  -1.85270  -1.85244
 Alpha  occ. eigenvalues --   -1.85121  -1.85065  -1.85050  -1.85032  -1.85016
 Alpha  occ. eigenvalues --   -1.85006  -1.84993  -1.84929  -1.84378  -1.84268
 Alpha  occ. eigenvalues --   -1.84251  -1.84244  -1.84208  -1.84199  -1.84134
 Alpha  occ. eigenvalues --   -1.84122  -1.84097  -1.84088  -1.84065  -1.84051
 Alpha  occ. eigenvalues --   -1.83938  -1.83905  -1.83879  -1.83874  -1.83845
 Alpha  occ. eigenvalues --   -1.83815  -1.83792  -1.83790  -1.83778  -1.83678
 Alpha  occ. eigenvalues --   -1.83669  -1.83663  -1.82220  -1.81884  -1.81864
 Alpha  occ. eigenvalues --   -1.50300  -1.50222  -1.50220  -1.08630  -1.07001
 Alpha  occ. eigenvalues --   -1.06959  -1.06926  -1.06015  -1.05998  -1.05957
 Alpha  occ. eigenvalues --   -1.04576  -1.04553  -1.04546  -1.03981  -1.03972
 Alpha  occ. eigenvalues --   -1.03777  -1.03378  -1.03356  -1.03330  -1.03019
 Alpha  occ. eigenvalues --   -1.02986  -1.02262  -1.02238  -1.02217  -1.02065
 Alpha  occ. eigenvalues --   -1.01993  -1.01960  -1.01896  -1.01870  -1.01766
 Alpha  occ. eigenvalues --   -1.01737  -1.01727  -1.01614  -1.01582  -1.01547
 Alpha  occ. eigenvalues --   -1.01282  -1.00828  -1.00734  -1.00684  -1.00679
 Alpha  occ. eigenvalues --   -1.00072  -1.00009  -0.99957  -0.96098  -0.89138
 Alpha  occ. eigenvalues --   -0.85736  -0.85666  -0.85659  -0.85589  -0.85572
 Alpha  occ. eigenvalues --   -0.85521  -0.85508  -0.85502  -0.85484  -0.84198
 Alpha  occ. eigenvalues --   -0.82344  -0.81250  -0.71840  -0.69564  -0.64988
 Alpha  occ. eigenvalues --   -0.62318  -0.61688  -0.61663  -0.61637  -0.60503
 Alpha  occ. eigenvalues --   -0.58964  -0.58939  -0.58928  -0.58864  -0.58808
 Alpha  occ. eigenvalues --   -0.58795  -0.58761  -0.58722  -0.58552  -0.57405
 Alpha  occ. eigenvalues --   -0.57370  -0.57347  -0.57055  -0.56647  -0.56510
 Alpha  occ. eigenvalues --   -0.56467  -0.56422  -0.56055  -0.55901  -0.55364
 Alpha  occ. eigenvalues --   -0.55349  -0.55321  -0.54389  -0.54159  -0.54139
 Alpha  occ. eigenvalues --   -0.53930  -0.53723  -0.53680  -0.53657  -0.52684
 Alpha  occ. eigenvalues --   -0.52594  -0.52588  -0.52480  -0.52439  -0.51472
 Alpha  occ. eigenvalues --   -0.51455  -0.51441  -0.51347  -0.51283  -0.50700
 Alpha  occ. eigenvalues --   -0.50532  -0.50527  -0.50465  -0.50369  -0.50276
 Alpha  occ. eigenvalues --   -0.50250  -0.50043  -0.49988  -0.49976  -0.49713
 Alpha  occ. eigenvalues --   -0.49621  -0.49574  -0.49484  -0.49450  -0.49295
 Alpha  occ. eigenvalues --   -0.49257  -0.49208  -0.49140  -0.49091  -0.49023
 Alpha  occ. eigenvalues --   -0.48663  -0.48503  -0.48477  -0.48427  -0.47649
 Alpha  occ. eigenvalues --   -0.47618  -0.47123  -0.46478  -0.46043  -0.46016
 Alpha  occ. eigenvalues --   -0.45881  -0.45757  -0.45717  -0.45596  -0.45204
 Alpha  occ. eigenvalues --   -0.45138  -0.45122  -0.44773  -0.44594  -0.44491
 Alpha  occ. eigenvalues --   -0.44477  -0.44450  -0.44299  -0.44201  -0.44165
 Alpha  occ. eigenvalues --   -0.43481  -0.43013  -0.42556  -0.42510  -0.42440
 Alpha  occ. eigenvalues --   -0.42339  -0.42191  -0.42177  -0.42092  -0.41629
 Alpha  occ. eigenvalues --   -0.41617  -0.41574  -0.41017  -0.40972  -0.40769
 Alpha  occ. eigenvalues --   -0.40747  -0.40728  -0.40362  -0.40348  -0.40303
 Alpha  occ. eigenvalues --   -0.40192  -0.40160  -0.40136  -0.40110  -0.39838
 Alpha  occ. eigenvalues --   -0.39355  -0.39271  -0.39262  -0.39132  -0.39085
 Alpha  occ. eigenvalues --   -0.38900  -0.38881  -0.38822  -0.38789  -0.38703
 Alpha  occ. eigenvalues --   -0.38291  -0.38260  -0.38220  -0.37902  -0.37199
 Alpha  occ. eigenvalues --   -0.37174  -0.35001  -0.34984  -0.33587  -0.29992
 Alpha  occ. eigenvalues --   -0.26097
 Alpha virt. eigenvalues --   -0.12494  -0.06371  -0.06319  -0.04888  -0.04846
 Alpha virt. eigenvalues --   -0.04703  -0.01535  -0.01413  -0.01351  -0.01150
 Alpha virt. eigenvalues --   -0.00931  -0.00931  -0.00885  -0.00148  -0.00092

  Beta  occ. eigenvalues -- -197.11258-129.99192-129.99115-129.99109-101.62969
  Beta  occ. eigenvalues --  -22.43644 -19.28527 -19.28497 -19.28453 -19.28379
  Beta  occ. eigenvalues --  -19.28372 -19.28346 -19.28340 -19.28337 -19.28322
  Beta  occ. eigenvalues --  -19.28270 -19.28224 -19.28132 -19.26938 -19.26888
  Beta  occ. eigenvalues --  -19.26885 -19.26881 -19.26859 -19.26840 -19.26824
  Beta  occ. eigenvalues --  -19.26820 -19.26814 -19.26790 -19.26779 -19.26769
  Beta  occ. eigenvalues --  -19.26766 -19.26762 -19.26760 -19.26745 -19.26745
  Beta  occ. eigenvalues --  -19.26735 -19.26730 -19.26730 -19.26722 -19.26700
  Beta  occ. eigenvalues --  -19.26649 -19.26588 -19.24865 -19.24843 -19.24797
  Beta  occ. eigenvalues --  -19.24783 -18.94143 -18.91943 -18.91893 -13.36606
  Beta  occ. eigenvalues --  -13.36521 -13.36519 -10.69532 -10.69528 -10.69527
  Beta  occ. eigenvalues --  -10.69447 -10.69447 -10.69444 -10.69442 -10.69442
  Beta  occ. eigenvalues --  -10.69438 -10.33101 -10.32196 -10.31832 -10.31033
  Beta  occ. eigenvalues --  -10.31015 -10.30997 -10.30459 -10.30393  -9.53424
  Beta  occ. eigenvalues --   -7.29313  -7.27809  -7.27806  -3.21107  -3.21055
  Beta  occ. eigenvalues --   -3.21055  -3.21041  -3.21022  -3.21005  -3.20997
  Beta  occ. eigenvalues --   -3.20992  -3.20984  -3.20879  -3.20844  -3.20822
  Beta  occ. eigenvalues --   -2.75020  -1.85327  -1.85279  -1.85265  -1.85236
  Beta  occ. eigenvalues --   -1.85115  -1.85060  -1.85044  -1.85027  -1.85008
  Beta  occ. eigenvalues --   -1.84997  -1.84987  -1.84921  -1.84375  -1.84266
  Beta  occ. eigenvalues --   -1.84248  -1.84242  -1.84205  -1.84196  -1.84131
  Beta  occ. eigenvalues --   -1.84120  -1.84094  -1.84085  -1.84062  -1.84048
  Beta  occ. eigenvalues --   -1.83936  -1.83902  -1.83876  -1.83871  -1.83842
  Beta  occ. eigenvalues --   -1.83812  -1.83789  -1.83788  -1.83775  -1.83676
  Beta  occ. eigenvalues --   -1.83666  -1.83661  -1.80876  -1.76166  -1.76053
  Beta  occ. eigenvalues --   -1.50300  -1.50222  -1.50220  -1.08613  -1.06982
  Beta  occ. eigenvalues --   -1.06936  -1.06897  -1.06013  -1.05996  -1.05957
  Beta  occ. eigenvalues --   -1.04577  -1.04552  -1.04546  -1.03982  -1.03972
  Beta  occ. eigenvalues --   -1.03711  -1.03347  -1.03315  -1.03291  -1.03019
  Beta  occ. eigenvalues --   -1.02979  -1.02243  -1.02215  -1.02199  -1.02056
  Beta  occ. eigenvalues --   -1.01988  -1.01947  -1.01892  -1.01856  -1.01762
  Beta  occ. eigenvalues --   -1.01735  -1.01724  -1.01612  -1.01579  -1.01531
  Beta  occ. eigenvalues --   -1.01282  -1.00790  -1.00734  -1.00683  -1.00680
  Beta  occ. eigenvalues --   -0.99939  -0.99888  -0.99839  -0.96304  -0.89750
  Beta  occ. eigenvalues --   -0.85736  -0.85666  -0.85659  -0.85589  -0.85572
  Beta  occ. eigenvalues --   -0.85521  -0.85508  -0.85502  -0.85484  -0.84899
  Beta  occ. eigenvalues --   -0.84291  -0.82664  -0.72079  -0.69676  -0.65209
  Beta  occ. eigenvalues --   -0.62317  -0.61688  -0.61662  -0.61637  -0.60687
  Beta  occ. eigenvalues --   -0.58955  -0.58937  -0.58926  -0.58795  -0.58783
  Beta  occ. eigenvalues --   -0.58753  -0.58735  -0.58668  -0.58553  -0.57372
  Beta  occ. eigenvalues --   -0.57220  -0.57178  -0.57003  -0.56816  -0.56514
  Beta  occ. eigenvalues --   -0.56434  -0.56386  -0.55857  -0.55646  -0.55346
  Beta  occ. eigenvalues --   -0.55329  -0.55323  -0.54564  -0.54152  -0.54130
  Beta  occ. eigenvalues --   -0.53919  -0.53681  -0.53657  -0.53617  -0.52723
  Beta  occ. eigenvalues --   -0.52626  -0.52577  -0.52460  -0.52432  -0.51447
  Beta  occ. eigenvalues --   -0.51433  -0.51429  -0.51275  -0.51216  -0.50856
  Beta  occ. eigenvalues --   -0.50497  -0.50467  -0.50428  -0.50313  -0.50231
  Beta  occ. eigenvalues --   -0.50148  -0.50011  -0.49984  -0.49949  -0.49659
  Beta  occ. eigenvalues --   -0.49595  -0.49543  -0.49476  -0.49438  -0.49294
  Beta  occ. eigenvalues --   -0.49234  -0.49206  -0.49110  -0.49077  -0.49002
  Beta  occ. eigenvalues --   -0.48657  -0.48506  -0.48473  -0.48418  -0.47762
  Beta  occ. eigenvalues --   -0.47581  -0.47544  -0.45919  -0.45898  -0.45829
  Beta  occ. eigenvalues --   -0.45813  -0.45668  -0.45557  -0.45204  -0.45160
  Beta  occ. eigenvalues --   -0.45127  -0.45045  -0.44772  -0.44593  -0.44477
  Beta  occ. eigenvalues --   -0.44420  -0.44419  -0.44283  -0.44180  -0.44151
  Beta  occ. eigenvalues --   -0.43477  -0.43113  -0.42495  -0.42465  -0.42397
  Beta  occ. eigenvalues --   -0.42267  -0.42171  -0.42153  -0.42138  -0.41612
  Beta  occ. eigenvalues --   -0.41595  -0.41551  -0.41288  -0.41023  -0.40925
  Beta  occ. eigenvalues --   -0.40747  -0.40700  -0.40645  -0.40347  -0.40337
  Beta  occ. eigenvalues --   -0.40285  -0.40147  -0.40124  -0.40112  -0.39782
  Beta  occ. eigenvalues --   -0.39627  -0.39356  -0.39168  -0.39113  -0.39094
  Beta  occ. eigenvalues --   -0.38898  -0.38854  -0.38835  -0.38790  -0.38732
  Beta  occ. eigenvalues --   -0.38679  -0.38293  -0.38257  -0.38217  -0.37995
  Beta  occ. eigenvalues --   -0.37201  -0.37169  -0.35978  -0.35960  -0.33838
  Beta  occ. eigenvalues --   -0.30861
  Beta virt. eigenvalues --   -0.06370  -0.06319  -0.04887  -0.04845  -0.04703
  Beta virt. eigenvalues --   -0.01530  -0.01408  -0.01346  -0.01144  -0.00927
  Beta virt. eigenvalues --   -0.00925  -0.00880  -0.00137  -0.00079  -0.00045

 Mulliken charges and spin densities:
               1          2
     1  Cl  -0.334651  -0.633869
     2  C   -0.036160  -0.085972
     3  C    0.014140   0.048088
     4  C   -0.035245  -0.082168
     5  C   -0.031421   0.052644
     6  C    0.006190  -0.105141
     7  C   -0.048454   0.052671
     8  H    0.049380   0.003775
     9  H    0.050380   0.003536
    10  H    0.055278  -0.001858
    11  H    0.056080   0.004618
    12  H    0.053906  -0.001840
    13  C    0.000862  -0.221885
    14  C   -0.044835  -0.043808
    15  H    0.073948   0.009371
    16  H    0.094908   0.002855
    17  H    0.087210   0.001201
    18  O   -0.672985  -0.000577
    19  O   -0.671482  -0.000524
    20  O   -0.666335  -0.001695
    21  O   -0.672310  -0.000541
    22  W    1.721293   0.000360
    23  W    1.662091   0.000485
    24  W    1.672902   0.000183
    25  W    1.682457   0.000201
    26  W    1.664352   0.002673
    27  W    1.712678   0.002411
    28  W    1.613449   0.003282
    29  W    1.672985   0.002814
    30  O   -0.350114  -0.000544
    31  O   -0.393847  -0.000564
    32  O   -0.394930  -0.000612
    33  O   -0.390166  -0.000563
    34  O   -0.674659  -0.000304
    35  O   -0.678956  -0.000056
    36  O   -0.671510  -0.000143
    37  O   -0.673858  -0.000235
    38  O   -0.397739   0.002022
    39  O   -0.395784   0.002049
    40  O   -0.339560  -0.000147
    41  O   -0.395190   0.002017
    42  O   -0.678440   0.000060
    43  O   -0.672721   0.000144
    44  O   -0.670393   0.000273
    45  O   -0.674730   0.000097
    46  O   -0.399108   0.002292
    47  O   -0.352835   0.002214
    48  O   -0.392868   0.001839
    49  O   -0.392969   0.002386
    50  W    1.661658   0.002657
    51  W    1.665636   0.002552
    52  W    1.679050   0.003657
    53  W    1.672148   0.002481
    54  O   -0.722699   0.000100
    55  O   -0.707629   0.000014
    56  O   -0.723201   0.000164
    57  O   -0.721441   0.000057
    58  O   -0.706149   0.000027
    59  O   -0.724884   0.000140
    60  O   -0.722919   0.000191
    61  O   -0.719391   0.000182
    62  O   -0.723903  -0.000179
    63  O   -0.708802  -0.000042
    64  O   -0.723068  -0.000204
    65  O   -0.724997  -0.000215
    66  O   -0.886294   0.004884
    67  O   -0.885933   0.007084
    68  O   -0.882843   0.006791
    69  O   -0.889246   0.006370
    70  K    0.851314   0.000183
    71  K    0.852736   0.000201
    72  K    0.848629   0.000215
    73  V    1.201992   0.939169
 Sum of Mulliken charges =  -1.00000  -0.00000

 Dipole moment (field-independent basis, Debye):
    X=             28.7453    Y=            -13.6879    Z=            -30.4952  Tot=             44.0863
 Quadrupole moment (field-independent basis, Debye-Ang):
   XX=           -768.2129   YY=           -706.6266   ZZ=           -777.1420
   XY=            129.4523   XZ=            180.1436   YZ=            -93.2020

 Normal termination of Gaussian 16 at Sun Jun  2 09:49:55 2024.
