 Gaussian 16, Revision C.01,
 Gaussian 16:  ES64L-G16RevC.01  3-Jul-2019

 ----------------------------------------------------------------------
 # def2svp wb97xd scrf=(smd,solvent=acetonitrile) g09default scf=(xqc,m
 axcycle=64) force guess=read nosymm
 ----------------------------------------------------------------------

 ----------
 Title Card
 ----------
 Symbolic Z-matrix:
 Charge = -1 Multiplicity = 1

                          Input orientation:
 ---------------------------------------------------------------------
 Center     Atomic      Atomic             Coordinates (Angstroms)
 Number     Number       Type             X           Y           Z
 ---------------------------------------------------------------------
      1         17           0       -9.783773    8.246359   10.555346
      2          6           0       -8.329944    4.236178   12.221601
      3          6           0       -9.119924    3.923024   11.100119
      4          6           0      -10.033875    2.857782   11.210049
      5          6           0      -10.201990    2.177389   12.411712
      6          6           0       -9.447222    2.535625   13.529688
      7          6           0       -8.494557    3.551308   13.421829
      8          1           0       -7.572319    5.019755   12.153195
      9          1           0      -10.618472    2.565131   10.333145
     10          1           0      -10.917639    1.354024   12.475966
     11          1           0       -9.583421    2.008623   14.476766
     12          1           0       -7.870893    3.808356   14.281581
     13          6           0       -9.033306    4.658725    9.836984
     14          6           0       -8.314117    5.774630    9.595442
     15          1           0       -9.633700    4.244665    9.019183
     16          1           0       -8.284302    6.196096    8.588531
     17          1           0       -7.669969    6.245687   10.339172
     18          8           0       -0.983020   -1.786697    7.465486
     19          8           0       -8.404385   -1.334416    7.460860
     20          8           0       -7.032487    1.347799   10.473966
     21          8           0       -2.333447   -4.383538   10.553431
     22         74           0       -3.410044    0.694351    6.474701
     23         74           0       -5.995922   -3.818267    6.563823
     24         74           0       -3.619011    0.881491   11.422244
     25         74           0       -5.765219   -3.858434   11.476997
     26         74           0       -2.438177   -2.585271    6.399653
     27         74           0       -6.945355   -0.533801    6.371224
     28         74           0       -6.825122   -0.247304   11.562721
     29         74           0       -2.547888   -2.721977   11.605086
     30          8           0       -3.171119    1.880921    5.298050
     31          8           0       -6.132700   -5.068954    5.422164
     32          8           0       -2.700925    1.729376   12.574655
     33          8           0       -6.676588   -4.664008   12.662441
     34          8           0       -2.662203   -0.907170    5.583704
     35          8           0       -6.708838   -2.267617    5.622739
     36          8           0       -5.317207    0.555630   12.361806
     37          8           0       -4.051885   -3.523293   12.403363
     38          8           0        0.302064   -0.003319    9.281896
     39          8           0       -9.702863   -3.037349    9.327035
     40          8           0       -6.353688    3.427979    8.670282
     41          8           0       -2.998957   -6.482952    8.753587
     42          8           0       -1.788786    0.759221    7.474704
     43          8           0       -7.602872   -3.884106    7.546289
     44          8           0       -4.502679    2.205549   10.431063
     45          8           0       -4.874358   -5.224711   10.523759
     46          8           0       -1.606509   -3.532298    5.256964
     47          8           0       -7.831814    0.272110    5.181289
     48          8           0       -8.050060   -0.163192   12.736842
     49          8           0       -1.308530   -2.850687   12.760636
     50         74           0       -1.255004   -0.521427    8.836378
     51         74           0       -8.143188   -2.534608    8.874279
     52         74           0       -5.876479    1.856069    9.047095
     53         74           0       -3.489737   -4.908508    9.166429
     54          8           0       -4.216582   -3.105826    6.067823
     55          8           0       -5.160034   -0.054579    6.009996
     56          8           0       -6.174157   -1.994994   11.909197
     57          8           0       -3.169673   -0.975191   11.933396
     58          8           0       -4.360564    1.579992    7.833747
     59          8           0       -5.005176   -4.677347    7.920648
     60          8           0       -2.330786    0.578767   10.082395
     61          8           0       -7.054451   -3.612582   10.133129
     62          8           0       -2.570915   -3.899321    7.866023
     63          8           0       -6.814618    0.789581    7.805754
     64          8           0       -7.830412   -1.175265   10.138933
     65          8           0       -1.567702   -1.858663   10.138212
     66          8           0       -3.361689   -1.151641    8.003027
     67          8           0       -6.027645   -1.955269    8.033526
     68          8           0       -5.119133   -0.201592    9.946615
     69          8           0       -4.238367   -2.838944    9.974750
     70         19           0       -3.214194   -6.138538    5.644796
     71         19           0       -0.107853    0.057366   12.351561
     72         19           0       -9.291032   -2.861875   12.437566
     73         23           0       -4.689367   -1.532433    8.986834
 ---------------------------------------------------------------------

 SCF Done:  E(RwB97XD) =  -7327.70136476     A.U. after   19 cycles

 Alpha  occ. eigenvalues -- -197.29729-130.00155-130.00118-130.00036-101.47976
 Alpha  occ. eigenvalues --  -22.62824 -19.33751 -19.33744 -19.33730 -19.33709
 Alpha  occ. eigenvalues --  -19.30719 -19.30673 -19.30671 -19.30665 -19.30663
 Alpha  occ. eigenvalues --  -19.30661 -19.30645 -19.30609 -19.30524 -19.30371
 Alpha  occ. eigenvalues --  -19.30328 -19.30144 -19.29316 -19.29304 -19.29292
 Alpha  occ. eigenvalues --  -19.29284 -19.29270 -19.29263 -19.29229 -19.29189
 Alpha  occ. eigenvalues --  -19.29175 -19.29155 -19.29150 -19.29143 -19.29127
 Alpha  occ. eigenvalues --  -19.29108 -19.29089 -19.29072 -19.29068 -19.29058
 Alpha  occ. eigenvalues --  -19.29048 -19.28977 -19.28966 -19.28950 -19.28913
 Alpha  occ. eigenvalues --  -19.28831 -19.11784 -19.11776 -19.11766 -13.37562
 Alpha  occ. eigenvalues --  -13.37523 -13.37435 -10.70491 -10.70484 -10.70483
 Alpha  occ. eigenvalues --  -10.70452 -10.70445 -10.70444 -10.70365 -10.70358
 Alpha  occ. eigenvalues --  -10.70353 -10.29910 -10.29367 -10.29318 -10.29123
 Alpha  occ. eigenvalues --  -10.29050 -10.29025 -10.28248 -10.27794  -9.38435
 Alpha  occ. eigenvalues --   -7.13260  -7.13216  -7.13211  -3.23306  -3.23302
 Alpha  occ. eigenvalues --   -3.23293  -3.23284  -3.23284  -3.23267  -3.23258
 Alpha  occ. eigenvalues --   -3.23234  -3.23195  -3.22976  -3.22971  -3.22764
 Alpha  occ. eigenvalues --   -2.91991  -1.94348  -1.94316  -1.94309  -1.87712
 Alpha  occ. eigenvalues --   -1.87660  -1.87644  -1.87605  -1.87475  -1.87468
 Alpha  occ. eigenvalues --   -1.87454  -1.87436  -1.87401  -1.87279  -1.87242
 Alpha  occ. eigenvalues --   -1.87076  -1.86616  -1.86497  -1.86491  -1.86470
 Alpha  occ. eigenvalues --   -1.86448  -1.86421  -1.86335  -1.86324  -1.86304
 Alpha  occ. eigenvalues --   -1.86284  -1.86276  -1.86243  -1.86134  -1.86124
 Alpha  occ. eigenvalues --   -1.86116  -1.86099  -1.86039  -1.86008  -1.85980
 Alpha  occ. eigenvalues --   -1.85919  -1.85897  -1.85799  -1.85695  -1.85648
 Alpha  occ. eigenvalues --   -1.51243  -1.51209  -1.51125  -1.13118  -1.11359
 Alpha  occ. eigenvalues --   -1.11281  -1.11268  -1.08978  -1.08535  -1.08491
 Alpha  occ. eigenvalues --   -1.08285  -1.07575  -1.07523  -1.07509  -1.06900
 Alpha  occ. eigenvalues --   -1.06866  -1.06856  -1.06317  -1.06298  -1.05297
 Alpha  occ. eigenvalues --   -1.05286  -1.04972  -1.04961  -1.04952  -1.04176
 Alpha  occ. eigenvalues --   -1.04170  -1.04158  -1.04010  -1.03988  -1.03975
 Alpha  occ. eigenvalues --   -1.03928  -1.03891  -1.03873  -1.03745  -1.03708
 Alpha  occ. eigenvalues --   -1.03601  -1.03541  -1.03295  -1.03246  -1.03095
 Alpha  occ. eigenvalues --   -1.03083  -1.03017  -1.02945  -0.94418  -0.86704
 Alpha  occ. eigenvalues --   -0.86673  -0.86595  -0.86570  -0.86518  -0.86503
 Alpha  occ. eigenvalues --   -0.86483  -0.86479  -0.86409  -0.86376  -0.82845
 Alpha  occ. eigenvalues --   -0.79855  -0.71142  -0.69780  -0.68078  -0.64595
 Alpha  occ. eigenvalues --   -0.63955  -0.63911  -0.63905  -0.63360  -0.63333
 Alpha  occ. eigenvalues --   -0.63210  -0.63054  -0.62717  -0.62623  -0.62050
 Alpha  occ. eigenvalues --   -0.61629  -0.61617  -0.61525  -0.61233  -0.61216
 Alpha  occ. eigenvalues --   -0.61165  -0.60403  -0.59491  -0.59465  -0.59449
 Alpha  occ. eigenvalues --   -0.59425  -0.59383  -0.58663  -0.57984  -0.57962
 Alpha  occ. eigenvalues --   -0.57876  -0.57105  -0.57065  -0.57032  -0.56302
 Alpha  occ. eigenvalues --   -0.56267  -0.56098  -0.55690  -0.54853  -0.54786
 Alpha  occ. eigenvalues --   -0.54752  -0.54585  -0.54229  -0.54105  -0.54074
 Alpha  occ. eigenvalues --   -0.54012  -0.53951  -0.53214  -0.53179  -0.53047
 Alpha  occ. eigenvalues --   -0.53001  -0.52883  -0.52689  -0.52639  -0.52621
 Alpha  occ. eigenvalues --   -0.52569  -0.52542  -0.52470  -0.52453  -0.51582
 Alpha  occ. eigenvalues --   -0.51555  -0.51354  -0.51320  -0.51285  -0.51236
 Alpha  occ. eigenvalues --   -0.51178  -0.51165  -0.50998  -0.50730  -0.50549
 Alpha  occ. eigenvalues --   -0.50534  -0.50521  -0.49871  -0.49848  -0.49314
 Alpha  occ. eigenvalues --   -0.49280  -0.49249  -0.49201  -0.49152  -0.49053
 Alpha  occ. eigenvalues --   -0.48898  -0.48081  -0.48028  -0.47930  -0.47750
 Alpha  occ. eigenvalues --   -0.47368  -0.47280  -0.47231  -0.47006  -0.46929
 Alpha  occ. eigenvalues --   -0.46819  -0.46554  -0.46472  -0.46465  -0.46217
 Alpha  occ. eigenvalues --   -0.46158  -0.46111  -0.45636  -0.45084  -0.44908
 Alpha  occ. eigenvalues --   -0.44871  -0.44189  -0.44152  -0.44040  -0.43601
 Alpha  occ. eigenvalues --   -0.43274  -0.43222  -0.43106  -0.43086  -0.43049
 Alpha  occ. eigenvalues --   -0.42696  -0.42669  -0.42648  -0.42585  -0.42581
 Alpha  occ. eigenvalues --   -0.42494  -0.42449  -0.42433  -0.42271  -0.42255
 Alpha  occ. eigenvalues --   -0.42232  -0.42008  -0.41895  -0.41839  -0.41822
 Alpha  occ. eigenvalues --   -0.41235  -0.41148  -0.41132  -0.41008  -0.40535
 Alpha  occ. eigenvalues --   -0.40508  -0.40499  -0.40424  -0.39436  -0.39420
 Alpha  occ. eigenvalues --   -0.36994  -0.32562  -0.29015  -0.24801  -0.24781
 Alpha  occ. eigenvalues --   -0.23561
 Alpha virt. eigenvalues --   -0.09684  -0.09459  -0.08508  -0.08448  -0.07046
 Alpha virt. eigenvalues --   -0.07023  -0.06889  -0.04675  -0.04322  -0.04285
 Alpha virt. eigenvalues --   -0.03730  -0.03541  -0.03474  -0.03259  -0.03162

 Mulliken charges:
               1
     1  Cl  -0.917351
     2  C   -0.077429
     3  C    0.045285
     4  C   -0.076190
     5  C   -0.033765
     6  C   -0.032386
     7  C   -0.050102
     8  H    0.030649
     9  H    0.030699
    10  H    0.041635
    11  H    0.037568
    12  H    0.040403
    13  C   -0.113119
    14  C    0.016125
    15  H    0.023113
    16  H    0.041959
    17  H    0.029099
    18  O   -0.664064
    19  O   -0.662806
    20  O   -0.655043
    21  O   -0.663393
    22  W    1.737690
    23  W    1.676521
    24  W    1.685765
    25  W    1.696557
    26  W    1.677977
    27  W    1.730283
    28  W    1.621998
    29  W    1.687582
    30  O   -0.320141
    31  O   -0.365369
    32  O   -0.366750
    33  O   -0.361247
    34  O   -0.666265
    35  O   -0.671539
    36  O   -0.662416
    37  O   -0.665062
    38  O   -0.368076
    39  O   -0.365444
    40  O   -0.296395
    41  O   -0.365156
    42  O   -0.670650
    43  O   -0.664097
    44  O   -0.661884
    45  O   -0.666271
    46  O   -0.369402
    47  O   -0.320749
    48  O   -0.360498
    49  O   -0.362647
    50  W    1.675994
    51  W    1.680245
    52  W    1.685894
    53  W    1.686907
    54  O   -0.724765
    55  O   -0.709248
    56  O   -0.726542
    57  O   -0.723167
    58  O   -0.708319
    59  O   -0.727772
    60  O   -0.725426
    61  O   -0.721673
    62  O   -0.725467
    63  O   -0.710030
    64  O   -0.724168
    65  O   -0.727218
    66  O   -0.803596
    67  O   -0.802385
    68  O   -0.799262
    69  O   -0.808735
    70  K    0.864596
    71  K    0.865641
    72  K    0.861962
    73  V    1.191330
 Sum of Mulliken charges =  -1.00000

 Dipole moment (field-independent basis, Debye):
    X=             51.1411    Y=            -51.7601    Z=            -38.5961  Tot=             82.3661
 Quadrupole moment (field-independent basis, Debye-Ang):
   XX=          -1055.8341   YY=           -891.9877   ZZ=           -911.5173
   XY=            458.2022   XZ=            458.4290   YZ=           -484.1150

 Normal termination of Gaussian 16 at Sun Jun  2 10:39:59 2024.
