 Gaussian 16, Revision C.01,
 Gaussian 16:  ES64L-G16RevC.01  3-Jul-2019

 ----------------------------------------------------------------------
 # def2svp wb97xd scrf=(smd,solvent=acetonitrile) g09default scf=(xqc,m
 axcycle=64) force guess=read nosymm
 ----------------------------------------------------------------------

 ----------
 Title Card
 ----------
 Symbolic Z-matrix:
 Charge = -1 Multiplicity = 1

                          Input orientation:
 ---------------------------------------------------------------------
 Center     Atomic      Atomic             Coordinates (Angstroms)
 Number     Number       Type             X           Y           Z
 ---------------------------------------------------------------------
      1         17           0       -9.783773    8.246359   10.555346
      2          6           0       -8.329944    4.236178   12.221601
      3          6           0       -9.119924    3.923024   11.100119
      4          6           0      -10.033875    2.857782   11.210049
      5          6           0      -10.201990    2.177389   12.411712
      6          6           0       -9.447222    2.535625   13.529688
      7          6           0       -8.494557    3.551308   13.421829
      8          1           0       -7.572319    5.019755   12.153195
      9          1           0      -10.618472    2.565131   10.333145
     10          1           0      -10.917639    1.354024   12.475966
     11          1           0       -9.583421    2.008623   14.476766
     12          1           0       -7.870893    3.808356   14.281581
     13          6           0       -9.033306    4.658725    9.836984
     14          6           0       -8.314117    5.774630    9.595442
     15          1           0       -9.633700    4.244665    9.019183
     16          1           0       -8.284302    6.196096    8.588531
     17          1           0       -7.669969    6.245687   10.339172
     18          8           0       -0.983020   -1.786697    7.465486
     19          8           0       -8.404385   -1.334416    7.460860
     20          8           0       -7.032487    1.347799   10.473966
     21          8           0       -2.333447   -4.383538   10.553431
     22         74           0       -3.410044    0.694351    6.474701
     23         74           0       -5.995922   -3.818267    6.563823
     24         74           0       -3.619011    0.881491   11.422244
     25         74           0       -5.765219   -3.858434   11.476997
     26         74           0       -2.438177   -2.585271    6.399653
     27         74           0       -6.945355   -0.533801    6.371224
     28         74           0       -6.825122   -0.247304   11.562721
     29         74           0       -2.547888   -2.721977   11.605086
     30          8           0       -3.171119    1.880921    5.298050
     31          8           0       -6.132700   -5.068954    5.422164
     32          8           0       -2.700925    1.729376   12.574655
     33          8           0       -6.676588   -4.664008   12.662441
     34          8           0       -2.662203   -0.907170    5.583704
     35          8           0       -6.708838   -2.267617    5.622739
     36          8           0       -5.317207    0.555630   12.361806
     37          8           0       -4.051885   -3.523293   12.403363
     38          8           0        0.302064   -0.003319    9.281896
     39          8           0       -9.702863   -3.037349    9.327035
     40          8           0       -6.353688    3.427979    8.670282
     41          8           0       -2.998957   -6.482952    8.753587
     42          8           0       -1.788786    0.759221    7.474704
     43          8           0       -7.602872   -3.884106    7.546289
     44          8           0       -4.502679    2.205549   10.431063
     45          8           0       -4.874358   -5.224711   10.523759
     46          8           0       -1.606509   -3.532298    5.256964
     47          8           0       -7.831814    0.272110    5.181289
     48          8           0       -8.050060   -0.163192   12.736842
     49          8           0       -1.308530   -2.850687   12.760636
     50         74           0       -1.255004   -0.521427    8.836378
     51         74           0       -8.143188   -2.534608    8.874279
     52         74           0       -5.876479    1.856069    9.047095
     53         74           0       -3.489737   -4.908508    9.166429
     54          8           0       -4.216582   -3.105826    6.067823
     55          8           0       -5.160034   -0.054579    6.009996
     56          8           0       -6.174157   -1.994994   11.909197
     57          8           0       -3.169673   -0.975191   11.933396
     58          8           0       -4.360564    1.579992    7.833747
     59          8           0       -5.005176   -4.677347    7.920648
     60          8           0       -2.330786    0.578767   10.082395
     61          8           0       -7.054451   -3.612582   10.133129
     62          8           0       -2.570915   -3.899321    7.866023
     63          8           0       -6.814618    0.789581    7.805754
     64          8           0       -7.830412   -1.175265   10.138933
     65          8           0       -1.567702   -1.858663   10.138212
     66          8           0       -3.361689   -1.151641    8.003027
     67          8           0       -6.027645   -1.955269    8.033526
     68          8           0       -5.119133   -0.201592    9.946615
     69          8           0       -4.238367   -2.838944    9.974750
     70         19           0       -3.214194   -6.138538    5.644796
     71         19           0       -0.107853    0.057366   12.351561
     72         19           0       -9.291032   -2.861875   12.437566
     73         23           0       -4.689367   -1.532433    8.986834
 ---------------------------------------------------------------------

 SCF Done:  E(UwB97XD) =  -7327.70141851     A.U. after   35 cycles

 Alpha  occ. eigenvalues --  -19.24799 -18.94481 -18.93386 -18.93364 -13.36598
 Alpha  occ. eigenvalues --  -13.36511 -13.36509 -10.69525 -10.69521 -10.69519
 Alpha  occ. eigenvalues --  -10.69438 -10.69437 -10.69434 -10.69432 -10.69432
 Alpha  occ. eigenvalues --  -10.69427 -10.32876 -10.32073 -10.31886 -10.30935
 Alpha  occ. eigenvalues --  -10.30927 -10.30914 -10.30517 -10.30450  -9.52941
 Alpha  occ. eigenvalues --   -7.27832  -7.27473  -7.27469  -3.21113  -3.21068
 Alpha  occ. eigenvalues --   -3.21055  -3.21041  -3.21032  -3.21013  -3.21005
 Alpha  occ. eigenvalues --   -3.21000  -3.20992  -3.20883  -3.20855  -3.20830
 Alpha  occ. eigenvalues --   -2.79086  -1.85334  -1.85287  -1.85273  -1.85247
 Alpha  occ. eigenvalues --   -1.85124  -1.85068  -1.85054  -1.85034  -1.85018
 Alpha  occ. eigenvalues --   -1.85008  -1.84994  -1.84936  -1.84381  -1.84272
 Alpha  occ. eigenvalues --   -1.84254  -1.84245  -1.84211  -1.84200  -1.84138
 Alpha  occ. eigenvalues --   -1.84125  -1.84100  -1.84089  -1.84067  -1.84052
 Alpha  occ. eigenvalues --   -1.83943  -1.83907  -1.83880  -1.83875  -1.83848
 Alpha  occ. eigenvalues --   -1.83818  -1.83795  -1.83792  -1.83780  -1.83683
 Alpha  occ. eigenvalues --   -1.83672  -1.83666  -1.82215  -1.81877  -1.81860
 Alpha  occ. eigenvalues --   -1.50293  -1.50213  -1.50211  -1.08631  -1.07003
 Alpha  occ. eigenvalues --   -1.06960  -1.06925  -1.06015  -1.05999  -1.05960
 Alpha  occ. eigenvalues --   -1.04576  -1.04555  -1.04547  -1.03983  -1.03973
 Alpha  occ. eigenvalues --   -1.03776  -1.03380  -1.03357  -1.03332  -1.03019
 Alpha  occ. eigenvalues --   -1.02986  -1.02262  -1.02237  -1.02217  -1.02068
 Alpha  occ. eigenvalues --   -1.01996  -1.01962  -1.01898  -1.01872  -1.01766
 Alpha  occ. eigenvalues --   -1.01738  -1.01728  -1.01613  -1.01582  -1.01553
 Alpha  occ. eigenvalues --   -1.01283  -1.00829  -1.00735  -1.00683  -1.00679
 Alpha  occ. eigenvalues --   -1.00071  -1.00010  -0.99955  -0.96105  -0.89145
 Alpha  occ. eigenvalues --   -0.85729  -0.85657  -0.85651  -0.85582  -0.85565
 Alpha  occ. eigenvalues --   -0.85512  -0.85499  -0.85493  -0.85474  -0.84204
 Alpha  occ. eigenvalues --   -0.82356  -0.81240  -0.71847  -0.69567  -0.64996
 Alpha  occ. eigenvalues --   -0.62320  -0.61692  -0.61664  -0.61638  -0.60506
 Alpha  occ. eigenvalues --   -0.58965  -0.58940  -0.58928  -0.58865  -0.58808
 Alpha  occ. eigenvalues --   -0.58796  -0.58763  -0.58724  -0.58553  -0.57405
 Alpha  occ. eigenvalues --   -0.57368  -0.57347  -0.57054  -0.56654  -0.56512
 Alpha  occ. eigenvalues --   -0.56468  -0.56423  -0.56055  -0.55902  -0.55364
 Alpha  occ. eigenvalues --   -0.55349  -0.55320  -0.54396  -0.54158  -0.54139
 Alpha  occ. eigenvalues --   -0.53929  -0.53724  -0.53681  -0.53658  -0.52686
 Alpha  occ. eigenvalues --   -0.52598  -0.52590  -0.52482  -0.52442  -0.51473
 Alpha  occ. eigenvalues --   -0.51456  -0.51440  -0.51346  -0.51282  -0.50707
 Alpha  occ. eigenvalues --   -0.50533  -0.50530  -0.50467  -0.50371  -0.50281
 Alpha  occ. eigenvalues --   -0.50257  -0.50042  -0.49988  -0.49976  -0.49714
 Alpha  occ. eigenvalues --   -0.49621  -0.49575  -0.49486  -0.49453  -0.49295
 Alpha  occ. eigenvalues --   -0.49257  -0.49209  -0.49143  -0.49092  -0.49027
 Alpha  occ. eigenvalues --   -0.48667  -0.48504  -0.48481  -0.48432  -0.47648
 Alpha  occ. eigenvalues --   -0.47617  -0.47124  -0.46478  -0.46045  -0.46018
 Alpha  occ. eigenvalues --   -0.45884  -0.45759  -0.45726  -0.45599  -0.45206
 Alpha  occ. eigenvalues --   -0.45138  -0.45123  -0.44771  -0.44593  -0.44492
 Alpha  occ. eigenvalues --   -0.44477  -0.44450  -0.44301  -0.44202  -0.44165
 Alpha  occ. eigenvalues --   -0.43481  -0.43018  -0.42555  -0.42511  -0.42439
 Alpha  occ. eigenvalues --   -0.42340  -0.42191  -0.42176  -0.42100  -0.41630
 Alpha  occ. eigenvalues --   -0.41617  -0.41577  -0.41017  -0.40973  -0.40767
 Alpha  occ. eigenvalues --   -0.40748  -0.40728  -0.40359  -0.40345  -0.40302
 Alpha  occ. eigenvalues --   -0.40192  -0.40159  -0.40136  -0.40110  -0.39839
 Alpha  occ. eigenvalues --   -0.39357  -0.39271  -0.39260  -0.39131  -0.39084
 Alpha  occ. eigenvalues --   -0.38899  -0.38879  -0.38821  -0.38788  -0.38702
 Alpha  occ. eigenvalues --   -0.38292  -0.38260  -0.38218  -0.37911  -0.37201
 Alpha  occ. eigenvalues --   -0.37174  -0.34989  -0.34971  -0.33592  -0.30018
 Alpha  occ. eigenvalues --   -0.26092
 Alpha virt. eigenvalues --   -0.12482  -0.06381  -0.06325  -0.04894  -0.04853
 Alpha virt. eigenvalues --   -0.04711  -0.01536  -0.01415  -0.01354  -0.01155
 Alpha virt. eigenvalues --   -0.00934  -0.00930  -0.00889  -0.00152  -0.00096

  Beta  occ. eigenvalues -- -197.11250-129.99185-129.99104-129.99100-101.62948
  Beta  occ. eigenvalues --  -22.43637 -19.28528 -19.28499 -19.28455 -19.28380
  Beta  occ. eigenvalues --  -19.28375 -19.28353 -19.28342 -19.28339 -19.28321
  Beta  occ. eigenvalues --  -19.28272 -19.28223 -19.28140 -19.26940 -19.26893
  Beta  occ. eigenvalues --  -19.26886 -19.26884 -19.26859 -19.26837 -19.26822
  Beta  occ. eigenvalues --  -19.26820 -19.26813 -19.26788 -19.26783 -19.26766
  Beta  occ. eigenvalues --  -19.26764 -19.26764 -19.26760 -19.26749 -19.26747
  Beta  occ. eigenvalues --  -19.26738 -19.26729 -19.26727 -19.26721 -19.26698
  Beta  occ. eigenvalues --  -19.26650 -19.26585 -19.24859 -19.24842 -19.24801
  Beta  occ. eigenvalues --  -19.24774 -18.94135 -18.91932 -18.91888 -13.36598
  Beta  occ. eigenvalues --  -13.36511 -13.36509 -10.69525 -10.69521 -10.69519
  Beta  occ. eigenvalues --  -10.69438 -10.69437 -10.69434 -10.69432 -10.69432
  Beta  occ. eigenvalues --  -10.69427 -10.33118 -10.32204 -10.31844 -10.31041
  Beta  occ. eigenvalues --  -10.31027 -10.31005 -10.30464 -10.30397  -9.53404
  Beta  occ. eigenvalues --   -7.29290  -7.27789  -7.27786  -3.21113  -3.21061
  Beta  occ. eigenvalues --   -3.21055  -3.21041  -3.21026  -3.21007  -3.20999
  Beta  occ. eigenvalues --   -3.20994  -3.20987  -3.20883  -3.20850  -3.20825
  Beta  occ. eigenvalues --   -2.75014  -1.85329  -1.85281  -1.85268  -1.85238
  Beta  occ. eigenvalues --   -1.85118  -1.85062  -1.85048  -1.85029  -1.85009
  Beta  occ. eigenvalues --   -1.84999  -1.84988  -1.84927  -1.84378  -1.84270
  Beta  occ. eigenvalues --   -1.84250  -1.84243  -1.84208  -1.84197  -1.84135
  Beta  occ. eigenvalues --   -1.84123  -1.84096  -1.84086  -1.84064  -1.84049
  Beta  occ. eigenvalues --   -1.83941  -1.83904  -1.83877  -1.83872  -1.83846
  Beta  occ. eigenvalues --   -1.83815  -1.83792  -1.83789  -1.83777  -1.83680
  Beta  occ. eigenvalues --   -1.83669  -1.83663  -1.80871  -1.76153  -1.76055
  Beta  occ. eigenvalues --   -1.50293  -1.50213  -1.50211  -1.08613  -1.06984
  Beta  occ. eigenvalues --   -1.06936  -1.06897  -1.06014  -1.05997  -1.05960
  Beta  occ. eigenvalues --   -1.04577  -1.04555  -1.04547  -1.03983  -1.03973
  Beta  occ. eigenvalues --   -1.03710  -1.03349  -1.03316  -1.03293  -1.03019
  Beta  occ. eigenvalues --   -1.02979  -1.02243  -1.02214  -1.02200  -1.02059
  Beta  occ. eigenvalues --   -1.01991  -1.01949  -1.01894  -1.01859  -1.01763
  Beta  occ. eigenvalues --   -1.01735  -1.01726  -1.01610  -1.01580  -1.01537
  Beta  occ. eigenvalues --   -1.01283  -1.00791  -1.00735  -1.00683  -1.00679
  Beta  occ. eigenvalues --   -0.99937  -0.99889  -0.99837  -0.96312  -0.89760
  Beta  occ. eigenvalues --   -0.85729  -0.85657  -0.85651  -0.85582  -0.85565
  Beta  occ. eigenvalues --   -0.85512  -0.85499  -0.85493  -0.85474  -0.84886
  Beta  occ. eigenvalues --   -0.84297  -0.82671  -0.72087  -0.69680  -0.65219
  Beta  occ. eigenvalues --   -0.62320  -0.61692  -0.61664  -0.61638  -0.60692
  Beta  occ. eigenvalues --   -0.58957  -0.58938  -0.58926  -0.58796  -0.58784
  Beta  occ. eigenvalues --   -0.58755  -0.58737  -0.58669  -0.58553  -0.57371
  Beta  occ. eigenvalues --   -0.57219  -0.57178  -0.57001  -0.56824  -0.56515
  Beta  occ. eigenvalues --   -0.56435  -0.56387  -0.55858  -0.55647  -0.55345
  Beta  occ. eigenvalues --   -0.55330  -0.55321  -0.54574  -0.54150  -0.54130
  Beta  occ. eigenvalues --   -0.53918  -0.53682  -0.53657  -0.53619  -0.52726
  Beta  occ. eigenvalues --   -0.52629  -0.52580  -0.52462  -0.52436  -0.51448
  Beta  occ. eigenvalues --   -0.51432  -0.51430  -0.51274  -0.51214  -0.50866
  Beta  occ. eigenvalues --   -0.50501  -0.50467  -0.50433  -0.50315  -0.50236
  Beta  occ. eigenvalues --   -0.50151  -0.50011  -0.49985  -0.49947  -0.49660
  Beta  occ. eigenvalues --   -0.49596  -0.49543  -0.49477  -0.49442  -0.49295
  Beta  occ. eigenvalues --   -0.49234  -0.49207  -0.49114  -0.49078  -0.49006
  Beta  occ. eigenvalues --   -0.48661  -0.48506  -0.48476  -0.48424  -0.47763
  Beta  occ. eigenvalues --   -0.47579  -0.47546  -0.45925  -0.45900  -0.45837
  Beta  occ. eigenvalues --   -0.45816  -0.45668  -0.45558  -0.45206  -0.45160
  Beta  occ. eigenvalues --   -0.45128  -0.45046  -0.44770  -0.44592  -0.44477
  Beta  occ. eigenvalues --   -0.44422  -0.44419  -0.44284  -0.44181  -0.44150
  Beta  occ. eigenvalues --   -0.43476  -0.43118  -0.42494  -0.42465  -0.42398
  Beta  occ. eigenvalues --   -0.42267  -0.42179  -0.42154  -0.42138  -0.41612
  Beta  occ. eigenvalues --   -0.41595  -0.41553  -0.41292  -0.41024  -0.40926
  Beta  occ. eigenvalues --   -0.40747  -0.40699  -0.40644  -0.40344  -0.40335
  Beta  occ. eigenvalues --   -0.40284  -0.40146  -0.40125  -0.40112  -0.39782
  Beta  occ. eigenvalues --   -0.39625  -0.39357  -0.39169  -0.39112  -0.39093
  Beta  occ. eigenvalues --   -0.38897  -0.38852  -0.38834  -0.38789  -0.38729
  Beta  occ. eigenvalues --   -0.38677  -0.38294  -0.38256  -0.38216  -0.37985
  Beta  occ. eigenvalues --   -0.37203  -0.37169  -0.35965  -0.35945  -0.33845
  Beta  occ. eigenvalues --   -0.30869
  Beta virt. eigenvalues --   -0.06379  -0.06325  -0.04893  -0.04852  -0.04710
  Beta virt. eigenvalues --   -0.01532  -0.01410  -0.01349  -0.01149  -0.00930
  Beta virt. eigenvalues --   -0.00925  -0.00885  -0.00140  -0.00082  -0.00047

 Mulliken charges and spin densities:
               1          2
     1  Cl  -0.335345  -0.632402
     2  C   -0.036023  -0.086685
     3  C    0.014073   0.048640
     4  C   -0.035209  -0.082819
     5  C   -0.031483   0.053038
     6  C    0.006258  -0.105925
     7  C   -0.048475   0.053100
     8  H    0.049593   0.003809
     9  H    0.050516   0.003564
    10  H    0.055406  -0.001873
    11  H    0.056176   0.004653
    12  H    0.053959  -0.001856
    13  C    0.000968  -0.224443
    14  C   -0.044925  -0.041936
    15  H    0.074201   0.009469
    16  H    0.094961   0.002772
    17  H    0.087027   0.001052
    18  O   -0.673002  -0.000576
    19  O   -0.671733  -0.000525
    20  O   -0.666385  -0.001687
    21  O   -0.672471  -0.000542
    22  W    1.721342   0.000360
    23  W    1.662395   0.000484
    24  W    1.673258   0.000181
    25  W    1.682736   0.000201
    26  W    1.664429   0.002675
    27  W    1.712803   0.002406
    28  W    1.613647   0.003293
    29  W    1.673289   0.002811
    30  O   -0.350113  -0.000543
    31  O   -0.393780  -0.000564
    32  O   -0.395179  -0.000611
    33  O   -0.390026  -0.000563
    34  O   -0.674675  -0.000302
    35  O   -0.679070  -0.000054
    36  O   -0.671504  -0.000144
    37  O   -0.673966  -0.000234
    38  O   -0.397801   0.002029
    39  O   -0.395506   0.002054
    40  O   -0.339907  -0.000096
    41  O   -0.395198   0.002023
    42  O   -0.678501   0.000055
    43  O   -0.672819   0.000140
    44  O   -0.670487   0.000269
    45  O   -0.674791   0.000093
    46  O   -0.399305   0.002288
    47  O   -0.352532   0.002206
    48  O   -0.393372   0.001839
    49  O   -0.392831   0.002381
    50  W    1.661945   0.002664
    51  W    1.665959   0.002556
    52  W    1.679182   0.003667
    53  W    1.672422   0.002489
    54  O   -0.722817   0.000101
    55  O   -0.707738   0.000015
    56  O   -0.723236   0.000165
    57  O   -0.721559   0.000058
    58  O   -0.706132   0.000031
    59  O   -0.724992   0.000141
    60  O   -0.722952   0.000191
    61  O   -0.719447   0.000183
    62  O   -0.723982  -0.000181
    63  O   -0.708767  -0.000045
    64  O   -0.723161  -0.000206
    65  O   -0.725057  -0.000216
    66  O   -0.886246   0.004903
    67  O   -0.885851   0.007099
    68  O   -0.882760   0.006780
    69  O   -0.889206   0.006364
    70  K    0.851062   0.000184
    71  K    0.852491   0.000202
    72  K    0.848380   0.000215
    73  V    1.201837   0.939140
 Sum of Mulliken charges =  -1.00000  -0.00000

 Dipole moment (field-independent basis, Debye):
    X=             28.6960    Y=            -13.6865    Z=            -30.4946  Tot=             44.0534
 Quadrupole moment (field-independent basis, Debye-Ang):
   XX=           -767.3875   YY=           -707.1725   ZZ=           -777.1000
   XY=            129.3083   XZ=            179.6667   YZ=            -93.1997

 Normal termination of Gaussian 16 at Sun Jun  2 10:26:12 2024.
