 Gaussian 16, Revision C.01,
 Gaussian 16:  ES64L-G16RevC.01  3-Jul-2019

 ----------------------------------------------------------------------
 # def2svp wb97xd scrf=(smd,solvent=acetonitrile) g09default scf=(xqc,m
 axcycle=64) force guess=read nosymm
 ----------------------------------------------------------------------

 ----------
 Title Card
 ----------
 Symbolic Z-matrix:
 Charge = -1 Multiplicity = 1

                          Input orientation:
 ---------------------------------------------------------------------
 Center     Atomic      Atomic             Coordinates (Angstroms)
 Number     Number       Type             X           Y           Z
 ---------------------------------------------------------------------
      1         17           0       -9.768420    8.254730   10.556296
      2          6           0       -8.331306    4.236937   12.220995
      3          6           0       -9.122677    3.924305   11.100347
      4          6           0      -10.035573    2.858067   11.210641
      5          6           0      -10.202234    2.177127   12.412320
      6          6           0       -9.446889    2.535744   13.529797
      7          6           0       -8.494511    3.551551   13.421095
      8          1           0       -7.573117    5.020109   12.152134
      9          1           0      -10.620929    2.565097   10.334504
     10          1           0      -10.917992    1.354039   12.477030
     11          1           0       -9.583420    2.009748   14.477370
     12          1           0       -7.870569    3.808796   14.280644
     13          6           0       -9.039027    4.661047    9.837511
     14          6           0       -8.326209    5.781352    9.597404
     15          1           0       -9.635776    4.243299    9.018889
     16          1           0       -8.299251    6.204864    8.591215
     17          1           0       -7.685486    6.255409   10.342064
     18          8           0       -0.981828   -1.788371    7.465851
     19          8           0       -8.403225   -1.334425    7.460835
     20          8           0       -7.031218    1.347973   10.473540
     21          8           0       -2.333603   -4.385462   10.553528
     22         74           0       -3.409391    0.693070    6.474249
     23         74           0       -5.994944   -3.818075    6.562909
     24         74           0       -3.617966    0.879497   11.422343
     25         74           0       -5.764640   -3.858629   11.477634
     26         74           0       -2.436604   -2.586906    6.400272
     27         74           0       -6.945031   -0.533531    6.371783
     28         74           0       -6.824642   -0.247413   11.561985
     29         74           0       -2.546801   -2.723918   11.604274
     30          8           0       -3.171010    1.878645    5.296674
     31          8           0       -6.130995   -5.068967    5.421398
     32          8           0       -2.698683    1.726564   12.574201
     33          8           0       -6.677386   -4.663086   12.663072
     34          8           0       -2.660991   -0.908925    5.584206
     35          8           0       -6.707838   -2.267438    5.622552
     36          8           0       -5.316435    0.554839   12.361576
     37          8           0       -4.051407   -3.524103   12.403508
     38          8           0        0.302850   -0.004457    9.282488
     39          8           0       -9.701434   -3.038208    9.327737
     40          8           0       -6.351792    3.428494    8.669441
     41          8           0       -3.000789   -6.484517    8.752049
     42          8           0       -1.787907    0.757770    7.474572
     43          8           0       -7.601986   -3.884145    7.545636
     44          8           0       -4.501118    2.204059   10.430611
     45          8           0       -4.874505   -5.225544   10.524352
     46          8           0       -1.605406   -3.534543    5.257972
     47          8           0       -7.830387    0.273692    5.181885
     48          8           0       -8.050027   -0.164468   12.735804
     49          8           0       -1.306898   -2.851441   12.759612
     50         74           0       -1.254074   -0.522477    8.836397
     51         74           0       -8.141702   -2.535468    8.874275
     52         74           0       -5.874927    1.856755    9.046588
     53         74           0       -3.490612   -4.910041    9.166103
     54          8           0       -4.215534   -3.106758    6.068208
     55          8           0       -5.158918   -0.055730    6.010537
     56          8           0       -6.173711   -1.995254   11.908792
     57          8           0       -3.169509   -0.976945   11.932622
     58          8           0       -4.359535    1.580305    7.832838
     59          8           0       -5.005174   -4.677916    7.920742
     60          8           0       -2.329782    0.577038   10.082164
     61          8           0       -7.053464   -3.612963   10.132758
     62          8           0       -2.570252   -3.901292    7.866131
     63          8           0       -6.813761    0.790649    7.805147
     64          8           0       -7.829902   -1.175537   10.138764
     65          8           0       -1.566360   -1.860121   10.138339
     66          8           0       -3.360607   -1.152747    8.003586
     67          8           0       -6.026732   -1.955618    8.033552
     68          8           0       -5.118791   -0.202459    9.946070
     69          8           0       -4.237733   -2.840133    9.974498
     70         19           0       -3.213668   -6.138016    5.644736
     71         19           0       -0.107449    0.057136   12.349972
     72         19           0       -9.290602   -2.857569   12.437305
     73         23           0       -4.688558   -1.533498    8.986954
 ---------------------------------------------------------------------

 SCF Done:  E(RwB97XD) =  -7327.70142012     A.U. after   12 cycles

 Alpha  occ. eigenvalues -- -197.29718-130.00147-130.00110-130.00024-101.48008
 Alpha  occ. eigenvalues --  -22.62813 -19.33749 -19.33738 -19.33729 -19.33704
 Alpha  occ. eigenvalues --  -19.30722 -19.30674 -19.30671 -19.30669 -19.30665
 Alpha  occ. eigenvalues --  -19.30661 -19.30650 -19.30608 -19.30527 -19.30374
 Alpha  occ. eigenvalues --  -19.30331 -19.30153 -19.29317 -19.29302 -19.29296
 Alpha  occ. eigenvalues --  -19.29287 -19.29272 -19.29263 -19.29229 -19.29191
 Alpha  occ. eigenvalues --  -19.29175 -19.29156 -19.29154 -19.29145 -19.29128
 Alpha  occ. eigenvalues --  -19.29109 -19.29092 -19.29073 -19.29066 -19.29058
 Alpha  occ. eigenvalues --  -19.29047 -19.28978 -19.28965 -19.28954 -19.28914
 Alpha  occ. eigenvalues --  -19.28833 -19.11774 -19.11766 -19.11756 -13.37554
 Alpha  occ. eigenvalues --  -13.37515 -13.37422 -10.70483 -10.70476 -10.70475
 Alpha  occ. eigenvalues --  -10.70444 -10.70437 -10.70436 -10.70353 -10.70346
 Alpha  occ. eigenvalues --  -10.70341 -10.29910 -10.29365 -10.29316 -10.29119
 Alpha  occ. eigenvalues --  -10.29046 -10.29023 -10.28238 -10.27779  -9.38468
 Alpha  occ. eigenvalues --   -7.13293  -7.13249  -7.13243  -3.23309  -3.23306
 Alpha  occ. eigenvalues --   -3.23296  -3.23288  -3.23287  -3.23269  -3.23262
 Alpha  occ. eigenvalues --   -3.23239  -3.23200  -3.22978  -3.22975  -3.22770
 Alpha  occ. eigenvalues --   -2.91985  -1.94342  -1.94310  -1.94303  -1.87714
 Alpha  occ. eigenvalues --   -1.87663  -1.87647  -1.87610  -1.87478  -1.87468
 Alpha  occ. eigenvalues --   -1.87457  -1.87438  -1.87406  -1.87282  -1.87245
 Alpha  occ. eigenvalues --   -1.87084  -1.86619  -1.86500  -1.86494  -1.86474
 Alpha  occ. eigenvalues --   -1.86451  -1.86425  -1.86337  -1.86326  -1.86307
 Alpha  occ. eigenvalues --   -1.86288  -1.86280  -1.86247  -1.86137  -1.86127
 Alpha  occ. eigenvalues --   -1.86119  -1.86103  -1.86043  -1.86013  -1.85982
 Alpha  occ. eigenvalues --   -1.85920  -1.85901  -1.85802  -1.85699  -1.85652
 Alpha  occ. eigenvalues --   -1.51235  -1.51202  -1.51114  -1.13117  -1.11357
 Alpha  occ. eigenvalues --   -1.11278  -1.11266  -1.08980  -1.08536  -1.08492
 Alpha  occ. eigenvalues --   -1.08287  -1.07576  -1.07523  -1.07509  -1.06900
 Alpha  occ. eigenvalues --   -1.06869  -1.06858  -1.06319  -1.06301  -1.05299
 Alpha  occ. eigenvalues --   -1.05288  -1.04973  -1.04963  -1.04953  -1.04178
 Alpha  occ. eigenvalues --   -1.04171  -1.04160  -1.04012  -1.03991  -1.03977
 Alpha  occ. eigenvalues --   -1.03928  -1.03894  -1.03876  -1.03749  -1.03710
 Alpha  occ. eigenvalues --   -1.03602  -1.03541  -1.03299  -1.03248  -1.03100
 Alpha  occ. eigenvalues --   -1.03086  -1.03018  -1.02949  -0.94414  -0.86697
 Alpha  occ. eigenvalues --   -0.86667  -0.86584  -0.86562  -0.86511  -0.86496
 Alpha  occ. eigenvalues --   -0.86477  -0.86472  -0.86398  -0.86365  -0.82841
 Alpha  occ. eigenvalues --   -0.79850  -0.71180  -0.69770  -0.68073  -0.64599
 Alpha  occ. eigenvalues --   -0.63960  -0.63912  -0.63907  -0.63359  -0.63333
 Alpha  occ. eigenvalues --   -0.63208  -0.63045  -0.62716  -0.62622  -0.62048
 Alpha  occ. eigenvalues --   -0.61630  -0.61618  -0.61525  -0.61237  -0.61220
 Alpha  occ. eigenvalues --   -0.61166  -0.60404  -0.59492  -0.59468  -0.59452
 Alpha  occ. eigenvalues --   -0.59426  -0.59383  -0.58653  -0.57986  -0.57964
 Alpha  occ. eigenvalues --   -0.57876  -0.57104  -0.57063  -0.57030  -0.56303
 Alpha  occ. eigenvalues --   -0.56270  -0.56102  -0.55692  -0.54854  -0.54789
 Alpha  occ. eigenvalues --   -0.54755  -0.54579  -0.54230  -0.54106  -0.54076
 Alpha  occ. eigenvalues --   -0.54013  -0.53952  -0.53216  -0.53181  -0.53049
 Alpha  occ. eigenvalues --   -0.53006  -0.52887  -0.52689  -0.52642  -0.52623
 Alpha  occ. eigenvalues --   -0.52568  -0.52542  -0.52469  -0.52454  -0.51586
 Alpha  occ. eigenvalues --   -0.51559  -0.51352  -0.51319  -0.51283  -0.51235
 Alpha  occ. eigenvalues --   -0.51177  -0.51168  -0.50992  -0.50734  -0.50551
 Alpha  occ. eigenvalues --   -0.50539  -0.50528  -0.49871  -0.49848  -0.49311
 Alpha  occ. eigenvalues --   -0.49283  -0.49250  -0.49206  -0.49153  -0.49056
 Alpha  occ. eigenvalues --   -0.48899  -0.48082  -0.48030  -0.47932  -0.47750
 Alpha  occ. eigenvalues --   -0.47371  -0.47281  -0.47233  -0.47005  -0.46928
 Alpha  occ. eigenvalues --   -0.46819  -0.46555  -0.46475  -0.46465  -0.46216
 Alpha  occ. eigenvalues --   -0.46157  -0.46112  -0.45632  -0.45087  -0.44910
 Alpha  occ. eigenvalues --   -0.44872  -0.44193  -0.44153  -0.44040  -0.43592
 Alpha  occ. eigenvalues --   -0.43273  -0.43221  -0.43107  -0.43087  -0.43051
 Alpha  occ. eigenvalues --   -0.42696  -0.42669  -0.42649  -0.42585  -0.42581
 Alpha  occ. eigenvalues --   -0.42495  -0.42449  -0.42434  -0.42272  -0.42256
 Alpha  occ. eigenvalues --   -0.42234  -0.42009  -0.41897  -0.41840  -0.41824
 Alpha  occ. eigenvalues --   -0.41228  -0.41148  -0.41133  -0.41008  -0.40536
 Alpha  occ. eigenvalues --   -0.40509  -0.40498  -0.40421  -0.39437  -0.39422
 Alpha  occ. eigenvalues --   -0.36994  -0.32560  -0.29032  -0.24828  -0.24808
 Alpha  occ. eigenvalues --   -0.23568
 Alpha virt. eigenvalues --   -0.09677  -0.09450  -0.08517  -0.08455  -0.07054
 Alpha virt. eigenvalues --   -0.07029  -0.06897  -0.04671  -0.04315  -0.04276
 Alpha virt. eigenvalues --   -0.03732  -0.03540  -0.03476  -0.03263  -0.03164

 Mulliken charges:
               1
     1  Cl  -0.915352
     2  C   -0.077590
     3  C    0.045691
     4  C   -0.076384
     5  C   -0.033786
     6  C   -0.032528
     7  C   -0.050141
     8  H    0.030768
     9  H    0.030604
    10  H    0.041580
    11  H    0.037519
    12  H    0.040408
    13  C   -0.114523
    14  C    0.016817
    15  H    0.023073
    16  H    0.041642
    17  H    0.028468
    18  O   -0.664078
    19  O   -0.662980
    20  O   -0.655148
    21  O   -0.663530
    22  W    1.737671
    23  W    1.676874
    24  W    1.686079
    25  W    1.696913
    26  W    1.678001
    27  W    1.730405
    28  W    1.622106
    29  W    1.687951
    30  O   -0.320012
    31  O   -0.365381
    32  O   -0.366768
    33  O   -0.361309
    34  O   -0.666304
    35  O   -0.671603
    36  O   -0.662420
    37  O   -0.665112
    38  O   -0.368169
    39  O   -0.365604
    40  O   -0.296375
    41  O   -0.365197
    42  O   -0.670735
    43  O   -0.664134
    44  O   -0.662044
    45  O   -0.666285
    46  O   -0.369368
    47  O   -0.320718
    48  O   -0.360884
    49  O   -0.362720
    50  W    1.676252
    51  W    1.680674
    52  W    1.685981
    53  W    1.687216
    54  O   -0.724918
    55  O   -0.709351
    56  O   -0.726580
    57  O   -0.723296
    58  O   -0.708278
    59  O   -0.727876
    60  O   -0.725486
    61  O   -0.721718
    62  O   -0.725527
    63  O   -0.709971
    64  O   -0.724227
    65  O   -0.727260
    66  O   -0.803477
    67  O   -0.802444
    68  O   -0.799022
    69  O   -0.808832
    70  K    0.864359
    71  K    0.865375
    72  K    0.861683
    73  V    1.191334
 Sum of Mulliken charges =  -1.00000

 Dipole moment (field-independent basis, Debye):
    X=             51.0634    Y=            -51.7217    Z=            -38.6131  Tot=             82.3018
 Quadrupole moment (field-independent basis, Debye-Ang):
   XX=          -1054.3759   YY=           -892.3147   ZZ=           -911.8794
   XY=            457.3155   XZ=            457.7116   YZ=           -483.7171

 Normal termination of Gaussian 16 at Sun Jun  2 11:17:49 2024.
