 Gaussian 16, Revision C.01,
 Gaussian 16:  ES64L-G16RevC.01  3-Jul-2019

 ----------------------------------------------------------------------
 # def2svp wb97xd scrf=(smd,solvent=acetonitrile) g09default scf=(xqc,m
 axcycle=64) force guess=read nosymm
 ----------------------------------------------------------------------

 ----------
 Title Card
 ----------
 Symbolic Z-matrix:
 Charge = -1 Multiplicity = 1

                          Input orientation:
 ---------------------------------------------------------------------
 Center     Atomic      Atomic             Coordinates (Angstroms)
 Number     Number       Type             X           Y           Z
 ---------------------------------------------------------------------
      1         17           0       -9.768420    8.254730   10.556296
      2          6           0       -8.331306    4.236937   12.220995
      3          6           0       -9.122677    3.924305   11.100347
      4          6           0      -10.035573    2.858067   11.210641
      5          6           0      -10.202234    2.177127   12.412320
      6          6           0       -9.446889    2.535744   13.529797
      7          6           0       -8.494511    3.551551   13.421095
      8          1           0       -7.573117    5.020109   12.152134
      9          1           0      -10.620929    2.565097   10.334504
     10          1           0      -10.917992    1.354039   12.477030
     11          1           0       -9.583420    2.009748   14.477370
     12          1           0       -7.870569    3.808796   14.280644
     13          6           0       -9.039027    4.661047    9.837511
     14          6           0       -8.326209    5.781352    9.597404
     15          1           0       -9.635776    4.243299    9.018889
     16          1           0       -8.299251    6.204864    8.591215
     17          1           0       -7.685486    6.255409   10.342064
     18          8           0       -0.981828   -1.788371    7.465851
     19          8           0       -8.403225   -1.334425    7.460835
     20          8           0       -7.031218    1.347973   10.473540
     21          8           0       -2.333603   -4.385462   10.553528
     22         74           0       -3.409391    0.693070    6.474249
     23         74           0       -5.994944   -3.818075    6.562909
     24         74           0       -3.617966    0.879497   11.422343
     25         74           0       -5.764640   -3.858629   11.477634
     26         74           0       -2.436604   -2.586906    6.400272
     27         74           0       -6.945031   -0.533531    6.371783
     28         74           0       -6.824642   -0.247413   11.561985
     29         74           0       -2.546801   -2.723918   11.604274
     30          8           0       -3.171010    1.878645    5.296674
     31          8           0       -6.130995   -5.068967    5.421398
     32          8           0       -2.698683    1.726564   12.574201
     33          8           0       -6.677386   -4.663086   12.663072
     34          8           0       -2.660991   -0.908925    5.584206
     35          8           0       -6.707838   -2.267438    5.622552
     36          8           0       -5.316435    0.554839   12.361576
     37          8           0       -4.051407   -3.524103   12.403508
     38          8           0        0.302850   -0.004457    9.282488
     39          8           0       -9.701434   -3.038208    9.327737
     40          8           0       -6.351792    3.428494    8.669441
     41          8           0       -3.000789   -6.484517    8.752049
     42          8           0       -1.787907    0.757770    7.474572
     43          8           0       -7.601986   -3.884145    7.545636
     44          8           0       -4.501118    2.204059   10.430611
     45          8           0       -4.874505   -5.225544   10.524352
     46          8           0       -1.605406   -3.534543    5.257972
     47          8           0       -7.830387    0.273692    5.181885
     48          8           0       -8.050027   -0.164468   12.735804
     49          8           0       -1.306898   -2.851441   12.759612
     50         74           0       -1.254074   -0.522477    8.836397
     51         74           0       -8.141702   -2.535468    8.874275
     52         74           0       -5.874927    1.856755    9.046588
     53         74           0       -3.490612   -4.910041    9.166103
     54          8           0       -4.215534   -3.106758    6.068208
     55          8           0       -5.158918   -0.055730    6.010537
     56          8           0       -6.173711   -1.995254   11.908792
     57          8           0       -3.169509   -0.976945   11.932622
     58          8           0       -4.359535    1.580305    7.832838
     59          8           0       -5.005174   -4.677916    7.920742
     60          8           0       -2.329782    0.577038   10.082164
     61          8           0       -7.053464   -3.612963   10.132758
     62          8           0       -2.570252   -3.901292    7.866131
     63          8           0       -6.813761    0.790649    7.805147
     64          8           0       -7.829902   -1.175537   10.138764
     65          8           0       -1.566360   -1.860121   10.138339
     66          8           0       -3.360607   -1.152747    8.003586
     67          8           0       -6.026732   -1.955618    8.033552
     68          8           0       -5.118791   -0.202459    9.946070
     69          8           0       -4.237733   -2.840133    9.974498
     70         19           0       -3.213668   -6.138016    5.644736
     71         19           0       -0.107449    0.057136   12.349972
     72         19           0       -9.290602   -2.857569   12.437305
     73         23           0       -4.688558   -1.533498    8.986954
 ---------------------------------------------------------------------

 SCF Done:  E(UwB97XD) =  -7327.70147822     A.U. after   39 cycles

 Alpha  occ. eigenvalues --  -19.24798 -18.94468 -18.93371 -18.93353 -13.36589
 Alpha  occ. eigenvalues --  -13.36502 -13.36496 -10.69516 -10.69512 -10.69510
 Alpha  occ. eigenvalues --  -10.69428 -10.69424 -10.69424 -10.69423 -10.69420
 Alpha  occ. eigenvalues --  -10.69414 -10.32890 -10.32081 -10.31899 -10.30944
 Alpha  occ. eigenvalues --  -10.30934 -10.30922 -10.30522 -10.30455  -9.52925
 Alpha  occ. eigenvalues --   -7.27815  -7.27457  -7.27453  -3.21117  -3.21072
 Alpha  occ. eigenvalues --   -3.21059  -3.21044  -3.21034  -3.21015  -3.21009
 Alpha  occ. eigenvalues --   -3.21004  -3.20996  -3.20884  -3.20859  -3.20834
 Alpha  occ. eigenvalues --   -2.79077  -1.85339  -1.85288  -1.85275  -1.85249
 Alpha  occ. eigenvalues --   -1.85128  -1.85068  -1.85055  -1.85037  -1.85021
 Alpha  occ. eigenvalues --   -1.85011  -1.84998  -1.84939  -1.84383  -1.84274
 Alpha  occ. eigenvalues --   -1.84257  -1.84248  -1.84213  -1.84203  -1.84140
 Alpha  occ. eigenvalues --   -1.84127  -1.84102  -1.84092  -1.84069  -1.84055
 Alpha  occ. eigenvalues --   -1.83947  -1.83910  -1.83883  -1.83878  -1.83851
 Alpha  occ. eigenvalues --   -1.83821  -1.83798  -1.83795  -1.83783  -1.83685
 Alpha  occ. eigenvalues --   -1.83675  -1.83669  -1.82207  -1.81868  -1.81852
 Alpha  occ. eigenvalues --   -1.50285  -1.50203  -1.50200  -1.08631  -1.07003
 Alpha  occ. eigenvalues --   -1.06961  -1.06926  -1.06015  -1.06001  -1.05963
 Alpha  occ. eigenvalues --   -1.04576  -1.04558  -1.04549  -1.03984  -1.03975
 Alpha  occ. eigenvalues --   -1.03775  -1.03382  -1.03358  -1.03334  -1.03020
 Alpha  occ. eigenvalues --   -1.02987  -1.02262  -1.02236  -1.02217  -1.02072
 Alpha  occ. eigenvalues --   -1.01996  -1.01964  -1.01899  -1.01874  -1.01768
 Alpha  occ. eigenvalues --   -1.01741  -1.01730  -1.01616  -1.01585  -1.01554
 Alpha  occ. eigenvalues --   -1.01284  -1.00830  -1.00736  -1.00683  -1.00678
 Alpha  occ. eigenvalues --   -1.00070  -1.00009  -0.99954  -0.96111  -0.89153
 Alpha  occ. eigenvalues --   -0.85722  -0.85646  -0.85643  -0.85574  -0.85557
 Alpha  occ. eigenvalues --   -0.85501  -0.85491  -0.85485  -0.85461  -0.84209
 Alpha  occ. eigenvalues --   -0.82370  -0.81233  -0.71853  -0.69572  -0.65003
 Alpha  occ. eigenvalues --   -0.62323  -0.61697  -0.61665  -0.61640  -0.60510
 Alpha  occ. eigenvalues --   -0.58966  -0.58942  -0.58929  -0.58867  -0.58809
 Alpha  occ. eigenvalues --   -0.58798  -0.58765  -0.58726  -0.58554  -0.57404
 Alpha  occ. eigenvalues --   -0.57368  -0.57347  -0.57053  -0.56661  -0.56513
 Alpha  occ. eigenvalues --   -0.56469  -0.56424  -0.56055  -0.55903  -0.55364
 Alpha  occ. eigenvalues --   -0.55349  -0.55319  -0.54404  -0.54157  -0.54138
 Alpha  occ. eigenvalues --   -0.53930  -0.53724  -0.53682  -0.53659  -0.52690
 Alpha  occ. eigenvalues --   -0.52603  -0.52592  -0.52485  -0.52445  -0.51475
 Alpha  occ. eigenvalues --   -0.51458  -0.51440  -0.51344  -0.51282  -0.50714
 Alpha  occ. eigenvalues --   -0.50537  -0.50532  -0.50469  -0.50373  -0.50285
 Alpha  occ. eigenvalues --   -0.50264  -0.50041  -0.49989  -0.49976  -0.49717
 Alpha  occ. eigenvalues --   -0.49622  -0.49576  -0.49487  -0.49455  -0.49296
 Alpha  occ. eigenvalues --   -0.49256  -0.49208  -0.49146  -0.49095  -0.49029
 Alpha  occ. eigenvalues --   -0.48672  -0.48507  -0.48487  -0.48434  -0.47647
 Alpha  occ. eigenvalues --   -0.47616  -0.47124  -0.46479  -0.46046  -0.46020
 Alpha  occ. eigenvalues --   -0.45887  -0.45760  -0.45733  -0.45602  -0.45209
 Alpha  occ. eigenvalues --   -0.45138  -0.45125  -0.44769  -0.44592  -0.44492
 Alpha  occ. eigenvalues --   -0.44478  -0.44451  -0.44302  -0.44203  -0.44164
 Alpha  occ. eigenvalues --   -0.43480  -0.43021  -0.42556  -0.42512  -0.42439
 Alpha  occ. eigenvalues --   -0.42341  -0.42191  -0.42176  -0.42110  -0.41631
 Alpha  occ. eigenvalues --   -0.41617  -0.41579  -0.41020  -0.40974  -0.40765
 Alpha  occ. eigenvalues --   -0.40750  -0.40726  -0.40357  -0.40343  -0.40302
 Alpha  occ. eigenvalues --   -0.40193  -0.40158  -0.40137  -0.40110  -0.39839
 Alpha  occ. eigenvalues --   -0.39358  -0.39270  -0.39259  -0.39130  -0.39083
 Alpha  occ. eigenvalues --   -0.38899  -0.38878  -0.38820  -0.38787  -0.38701
 Alpha  occ. eigenvalues --   -0.38293  -0.38260  -0.38217  -0.37922  -0.37203
 Alpha  occ. eigenvalues --   -0.37174  -0.34980  -0.34961  -0.33596  -0.30049
 Alpha  occ. eigenvalues --   -0.26083
 Alpha virt. eigenvalues --   -0.12466  -0.06389  -0.06332  -0.04901  -0.04860
 Alpha virt. eigenvalues --   -0.04719  -0.01538  -0.01417  -0.01359  -0.01160
 Alpha virt. eigenvalues --   -0.00937  -0.00933  -0.00894  -0.00155  -0.00098

  Beta  occ. eigenvalues -- -197.11235-129.99176-129.99091-129.99091-101.62931
  Beta  occ. eigenvalues --  -22.43624 -19.28534 -19.28502 -19.28453 -19.28383
  Beta  occ. eigenvalues --  -19.28376 -19.28350 -19.28342 -19.28339 -19.28327
  Beta  occ. eigenvalues --  -19.28276 -19.28231 -19.28144 -19.26943 -19.26895
  Beta  occ. eigenvalues --  -19.26888 -19.26882 -19.26860 -19.26836 -19.26820
  Beta  occ. eigenvalues --  -19.26820 -19.26815 -19.26790 -19.26788 -19.26768
  Beta  occ. eigenvalues --  -19.26767 -19.26763 -19.26760 -19.26750 -19.26748
  Beta  occ. eigenvalues --  -19.26739 -19.26728 -19.26727 -19.26722 -19.26699
  Beta  occ. eigenvalues --  -19.26648 -19.26586 -19.24858 -19.24834 -19.24793
  Beta  occ. eigenvalues --  -19.24772 -18.94122 -18.91915 -18.91879 -13.36589
  Beta  occ. eigenvalues --  -13.36502 -13.36496 -10.69516 -10.69512 -10.69510
  Beta  occ. eigenvalues --  -10.69428 -10.69424 -10.69424 -10.69423 -10.69420
  Beta  occ. eigenvalues --  -10.69414 -10.33135 -10.32210 -10.31856 -10.31049
  Beta  occ. eigenvalues --  -10.31037 -10.31013 -10.30469 -10.30402  -9.53387
  Beta  occ. eigenvalues --   -7.29270  -7.27773  -7.27769  -3.21117  -3.21066
  Beta  occ. eigenvalues --   -3.21059  -3.21043  -3.21028  -3.21009  -3.21004
  Beta  occ. eigenvalues --   -3.20998  -3.20991  -3.20884  -3.20854  -3.20829
  Beta  occ. eigenvalues --   -2.75005  -1.85334  -1.85283  -1.85271  -1.85241
  Beta  occ. eigenvalues --   -1.85122  -1.85063  -1.85049  -1.85032  -1.85013
  Beta  occ. eigenvalues --   -1.85002  -1.84992  -1.84930  -1.84381  -1.84272
  Beta  occ. eigenvalues --   -1.84254  -1.84245  -1.84210  -1.84200  -1.84137
  Beta  occ. eigenvalues --   -1.84126  -1.84099  -1.84090  -1.84066  -1.84052
  Beta  occ. eigenvalues --   -1.83945  -1.83907  -1.83880  -1.83875  -1.83848
  Beta  occ. eigenvalues --   -1.83818  -1.83795  -1.83792  -1.83780  -1.83683
  Beta  occ. eigenvalues --   -1.83672  -1.83666  -1.80864  -1.76136  -1.76055
  Beta  occ. eigenvalues --   -1.50285  -1.50203  -1.50200  -1.08613  -1.06984
  Beta  occ. eigenvalues --   -1.06938  -1.06898  -1.06013  -1.05998  -1.05963
  Beta  occ. eigenvalues --   -1.04578  -1.04557  -1.04549  -1.03986  -1.03975
  Beta  occ. eigenvalues --   -1.03708  -1.03351  -1.03317  -1.03295  -1.03020
  Beta  occ. eigenvalues --   -1.02980  -1.02243  -1.02212  -1.02200  -1.02063
  Beta  occ. eigenvalues --   -1.01991  -1.01951  -1.01894  -1.01861  -1.01764
  Beta  occ. eigenvalues --   -1.01738  -1.01727  -1.01614  -1.01582  -1.01538
  Beta  occ. eigenvalues --   -1.01284  -1.00792  -1.00736  -1.00682  -1.00679
  Beta  occ. eigenvalues --   -0.99937  -0.99886  -0.99837  -0.96319  -0.89771
  Beta  occ. eigenvalues --   -0.85722  -0.85646  -0.85643  -0.85574  -0.85557
  Beta  occ. eigenvalues --   -0.85501  -0.85491  -0.85485  -0.85461  -0.84878
  Beta  occ. eigenvalues --   -0.84303  -0.82677  -0.72094  -0.69685  -0.65227
  Beta  occ. eigenvalues --   -0.62323  -0.61696  -0.61665  -0.61639  -0.60698
  Beta  occ. eigenvalues --   -0.58959  -0.58940  -0.58927  -0.58797  -0.58785
  Beta  occ. eigenvalues --   -0.58758  -0.58739  -0.58671  -0.58555  -0.57369
  Beta  occ. eigenvalues --   -0.57219  -0.57178  -0.57001  -0.56831  -0.56516
  Beta  occ. eigenvalues --   -0.56436  -0.56388  -0.55859  -0.55647  -0.55345
  Beta  occ. eigenvalues --   -0.55331  -0.55320  -0.54584  -0.54150  -0.54129
  Beta  occ. eigenvalues --   -0.53919  -0.53682  -0.53657  -0.53620  -0.52731
  Beta  occ. eigenvalues --   -0.52633  -0.52582  -0.52465  -0.52439  -0.51450
  Beta  occ. eigenvalues --   -0.51432  -0.51432  -0.51274  -0.51212  -0.50876
  Beta  occ. eigenvalues --   -0.50507  -0.50469  -0.50436  -0.50317  -0.50240
  Beta  occ. eigenvalues --   -0.50154  -0.50010  -0.49986  -0.49946  -0.49664
  Beta  occ. eigenvalues --   -0.49597  -0.49543  -0.49478  -0.49444  -0.49295
  Beta  occ. eigenvalues --   -0.49233  -0.49206  -0.49117  -0.49081  -0.49008
  Beta  occ. eigenvalues --   -0.48666  -0.48509  -0.48483  -0.48426  -0.47764
  Beta  occ. eigenvalues --   -0.47577  -0.47547  -0.45931  -0.45902  -0.45843
  Beta  occ. eigenvalues --   -0.45819  -0.45670  -0.45560  -0.45209  -0.45161
  Beta  occ. eigenvalues --   -0.45129  -0.45047  -0.44769  -0.44590  -0.44478
  Beta  occ. eigenvalues --   -0.44423  -0.44419  -0.44285  -0.44182  -0.44150
  Beta  occ. eigenvalues --   -0.43476  -0.43123  -0.42494  -0.42464  -0.42398
  Beta  occ. eigenvalues --   -0.42268  -0.42190  -0.42153  -0.42138  -0.41614
  Beta  occ. eigenvalues --   -0.41595  -0.41555  -0.41300  -0.41026  -0.40927
  Beta  occ. eigenvalues --   -0.40747  -0.40697  -0.40646  -0.40342  -0.40334
  Beta  occ. eigenvalues --   -0.40285  -0.40145  -0.40125  -0.40114  -0.39783
  Beta  occ. eigenvalues --   -0.39624  -0.39358  -0.39169  -0.39112  -0.39093
  Beta  occ. eigenvalues --   -0.38898  -0.38850  -0.38832  -0.38786  -0.38729
  Beta  occ. eigenvalues --   -0.38675  -0.38295  -0.38257  -0.38215  -0.37974
  Beta  occ. eigenvalues --   -0.37205  -0.37168  -0.35954  -0.35932  -0.33851
  Beta  occ. eigenvalues --   -0.30878
  Beta virt. eigenvalues --   -0.06388  -0.06332  -0.04900  -0.04859  -0.04718
  Beta virt. eigenvalues --   -0.01533  -0.01413  -0.01354  -0.01154  -0.00932
  Beta virt. eigenvalues --   -0.00928  -0.00889  -0.00144  -0.00085  -0.00050

 Mulliken charges and spin densities:
               1          2
     1  Cl  -0.335870  -0.631013
     2  C   -0.035947  -0.087351
     3  C    0.013990   0.049238
     4  C   -0.035152  -0.083523
     5  C   -0.031498   0.053460
     6  C    0.006324  -0.106675
     7  C   -0.048494   0.053507
     8  H    0.049855   0.003841
     9  H    0.050553   0.003592
    10  H    0.055438  -0.001888
    11  H    0.056241   0.004686
    12  H    0.054052  -0.001873
    13  C    0.001231  -0.227201
    14  C   -0.045245  -0.039835
    15  H    0.074481   0.009573
    16  H    0.095022   0.002680
    17  H    0.086895   0.000870
    18  O   -0.673023  -0.000575
    19  O   -0.671908  -0.000526
    20  O   -0.666493  -0.001678
    21  O   -0.672610  -0.000542
    22  W    1.721307   0.000359
    23  W    1.662738   0.000482
    24  W    1.673528   0.000178
    25  W    1.683069   0.000200
    26  W    1.664444   0.002675
    27  W    1.712920   0.002404
    28  W    1.613790   0.003301
    29  W    1.673650   0.002811
    30  O   -0.349983  -0.000542
    31  O   -0.393787  -0.000564
    32  O   -0.395194  -0.000610
    33  O   -0.390091  -0.000563
    34  O   -0.674702  -0.000300
    35  O   -0.679134  -0.000052
    36  O   -0.671520  -0.000145
    37  O   -0.674021  -0.000232
    38  O   -0.397901   0.002037
    39  O   -0.395687   0.002065
    40  O   -0.339759  -0.000042
    41  O   -0.395243   0.002032
    42  O   -0.678580   0.000050
    43  O   -0.672859   0.000137
    44  O   -0.670624   0.000264
    45  O   -0.674808   0.000089
    46  O   -0.399260   0.002282
    47  O   -0.352501   0.002202
    48  O   -0.393775   0.001839
    49  O   -0.392907   0.002377
    50  W    1.662204   0.002671
    51  W    1.666387   0.002565
    52  W    1.679178   0.003673
    53  W    1.672723   0.002499
    54  O   -0.722958   0.000102
    55  O   -0.707812   0.000016
    56  O   -0.723267   0.000165
    57  O   -0.721664   0.000059
    58  O   -0.706120   0.000034
    59  O   -0.725093   0.000141
    60  O   -0.723002   0.000192
    61  O   -0.719483   0.000183
    62  O   -0.724054  -0.000182
    63  O   -0.708733  -0.000048
    64  O   -0.723226  -0.000208
    65  O   -0.725112  -0.000217
    66  O   -0.886122   0.004931
    67  O   -0.885881   0.007106
    68  O   -0.882520   0.006783
    69  O   -0.889265   0.006357
    70  K    0.850810   0.000184
    71  K    0.852211   0.000203
    72  K    0.848078   0.000214
    73  V    1.201772   0.939079
 Sum of Mulliken charges =  -1.00000   0.00000

 Dipole moment (field-independent basis, Debye):
    X=             28.6516    Y=            -13.6615    Z=            -30.5028  Tot=             44.0224
 Quadrupole moment (field-independent basis, Debye-Ang):
   XX=           -766.6548   YY=           -707.6390   ZZ=           -777.2367
   XY=            128.9370   XZ=            179.2433   YZ=            -92.9208

 Normal termination of Gaussian 16 at Sun Jun  2 11:06:55 2024.
