 Gaussian 16, Revision C.01,
 Gaussian 16:  ES64L-G16RevC.01  3-Jul-2019

 ----------------------------------------------------------------------
 # def2svp wb97xd scrf=(smd,solvent=acetonitrile) g09default scf=(xqc,m
 axcycle=64) force guess=read nosymm
 ----------------------------------------------------------------------

 ----------
 Title Card
 ----------
 Symbolic Z-matrix:
 Charge = -1 Multiplicity = 1

                          Input orientation:
 ---------------------------------------------------------------------
 Center     Atomic      Atomic             Coordinates (Angstroms)
 Number     Number       Type             X           Y           Z
 ---------------------------------------------------------------------
      1         17           0       -9.843895    7.512402   10.363825
      2          6           0       -8.307954    4.255984   12.241514
      3          6           0       -9.077413    3.940877   11.102791
      4          6           0      -10.010124    2.889753   11.193786
      5          6           0      -10.184909    2.190451   12.378977
      6          6           0       -9.424709    2.524154   13.503853
      7          6           0       -8.482749    3.552585   13.425883
      8          1           0       -7.571671    5.061397   12.198796
      9          1           0      -10.599795    2.628297   10.309191
     10          1           0      -10.912572    1.377998   12.433543
     11          1           0       -9.559038    1.975519   14.436008
     12          1           0       -7.882544    3.808545   14.303322
     13          6           0       -8.941742    4.656598    9.845277
     14          6           0       -8.120209    5.701853    9.598059
     15          1           0       -9.610581    4.321232    9.042245
     16          1           0       -8.043127    6.117144    8.587943
     17          1           0       -7.361192    6.041486   10.313302
     18          8           0       -0.976255   -1.763829    7.443683
     19          8           0       -8.444666   -1.323411    7.451203
     20          8           0       -7.085252    1.364073   10.506083
     21          8           0       -2.314263   -4.373491   10.577705
     22         74           0       -3.420018    0.747783    6.523695
     23         74           0       -6.024952   -3.825230    6.602877
     24         74           0       -3.644013    0.929516   11.384537
     25         74           0       -5.768005   -3.875979   11.455887
     26         74           0       -2.475612   -2.532787    6.374777
     27         74           0       -6.944883   -0.546308    6.350054
     28         74           0       -6.817087   -0.248855   11.600946
     29         74           0       -2.585829   -2.694075   11.630834
     30          8           0       -3.210028    1.934030    5.362407
     31          8           0       -6.133931   -5.073027    5.472431
     32          8           0       -2.714824    1.756353   12.526563
     33          8           0       -6.689304   -4.666962   12.627666
     34          8           0       -2.683164   -0.859203    5.576178
     35          8           0       -6.730001   -2.278081    5.616013
     36          8           0       -5.329091    0.584692   12.379759
     37          8           0       -4.065790   -3.525065   12.427340
     38          8           0        0.281776   -0.006088    9.282562
     39          8           0       -9.702867   -3.012912    9.344555
     40          8           0       -6.450765    3.404085    8.672928
     41          8           0       -2.973506   -6.435182    8.739467
     42          8           0       -1.791828    0.792911    7.483138
     43          8           0       -7.636151   -3.883382    7.555136
     44          8           0       -4.548922    2.248415   10.432690
     45          8           0       -4.859703   -5.233496   10.530505
     46          8           0       -1.656376   -3.473594    5.234692
     47          8           0       -7.810043    0.258060    5.165132
     48          8           0       -8.028193   -0.181860   12.774159
     49          8           0       -1.351642   -2.789729   12.779155
     50         74           0       -1.257832   -0.536743    8.830984
     51         74           0       -8.165635   -2.490835    8.875503
     52         74           0       -5.968721    1.854117    9.062647
     53         74           0       -3.449921   -4.874680    9.175144
     54          8           0       -4.242987   -3.071414    6.088952
     55          8           0       -5.170309   -0.053385    6.037883
     56          8           0       -6.165945   -1.989898   11.906231
     57          8           0       -3.216041   -0.958519   11.912661
     58          8           0       -4.399010    1.588882    7.868337
     59          8           0       -5.012547   -4.647146    7.950258
     60          8           0       -2.367278    0.589937   10.060518
     61          8           0       -7.045286   -3.595826   10.121348
     62          8           0       -2.571176   -3.861093    7.871038
     63          8           0       -6.860137    0.785998    7.812625
     64          8           0       -7.845747   -1.159559   10.152008
     65          8           0       -1.575888   -1.844576   10.142786
     66          8           0       -3.357932   -1.138134    8.015659
     67          8           0       -6.062605   -1.933850    8.040274
     68          8           0       -5.170400   -0.175926    9.948173
     69          8           0       -4.226217   -2.832787    9.983457
     70         19           0       -3.247141   -6.068344    5.702985
     71         19           0       -0.199066    0.016878   12.312544
     72         19           0       -9.215583   -2.918378   12.365789
     73         23           0       -4.705961   -1.516776    8.995004
 ---------------------------------------------------------------------

 SCF Done:  E(RwB97XD) =  -7327.67541917     A.U. after   19 cycles

 Alpha  occ. eigenvalues -- -197.30874-129.99965-129.99930-129.99825-101.48586
 Alpha  occ. eigenvalues --  -22.63834 -19.34023 -19.34014 -19.34003 -19.33967
 Alpha  occ. eigenvalues --  -19.30844 -19.30810 -19.30799 -19.30781 -19.30741
 Alpha  occ. eigenvalues --  -19.30724 -19.30722 -19.30674 -19.30533 -19.30458
 Alpha  occ. eigenvalues --  -19.30418 -19.30051 -19.29270 -19.29263 -19.29226
 Alpha  occ. eigenvalues --  -19.29201 -19.29189 -19.29185 -19.29182 -19.29165
 Alpha  occ. eigenvalues --  -19.29164 -19.29150 -19.29147 -19.29082 -19.29068
 Alpha  occ. eigenvalues --  -19.29067 -19.29035 -19.29033 -19.29031 -19.28955
 Alpha  occ. eigenvalues --  -19.28926 -19.28897 -19.28849 -19.28811 -19.28773
 Alpha  occ. eigenvalues --  -19.28627 -19.12816 -19.12806 -19.12786 -13.37359
 Alpha  occ. eigenvalues --  -13.37323 -13.37206 -10.70289 -10.70282 -10.70282
 Alpha  occ. eigenvalues --  -10.70254 -10.70246 -10.70246 -10.70139 -10.70131
 Alpha  occ. eigenvalues --  -10.70129 -10.29083 -10.28900 -10.28846 -10.28392
 Alpha  occ. eigenvalues --  -10.28260 -10.28239 -10.28020 -10.25547  -9.39111
 Alpha  occ. eigenvalues --   -7.13972  -7.13862  -7.13849  -3.23231  -3.23208
 Alpha  occ. eigenvalues --   -3.23191  -3.23173  -3.23172  -3.23167  -3.23108
 Alpha  occ. eigenvalues --   -3.23073  -3.23008  -3.22801  -3.22769  -3.22387
 Alpha  occ. eigenvalues --   -2.92636  -1.94902  -1.94848  -1.94842  -1.87826
 Alpha  occ. eigenvalues --   -1.87729  -1.87720  -1.87612  -1.87582  -1.87569
 Alpha  occ. eigenvalues --   -1.87520  -1.87501  -1.87402  -1.87342  -1.87317
 Alpha  occ. eigenvalues --   -1.86974  -1.86513  -1.86395  -1.86385  -1.86357
 Alpha  occ. eigenvalues --   -1.86332  -1.86274  -1.86216  -1.86188  -1.86166
 Alpha  occ. eigenvalues --   -1.86158  -1.86099  -1.86084  -1.86031  -1.85990
 Alpha  occ. eigenvalues --   -1.85978  -1.85944  -1.85919  -1.85830  -1.85803
 Alpha  occ. eigenvalues --   -1.85722  -1.85692  -1.85610  -1.85379  -1.85281
 Alpha  occ. eigenvalues --   -1.51065  -1.51031  -1.50917  -1.13238  -1.11557
 Alpha  occ. eigenvalues --   -1.11445  -1.11417  -1.08890  -1.08393  -1.08313
 Alpha  occ. eigenvalues --   -1.08057  -1.07492  -1.07404  -1.07380  -1.06716
 Alpha  occ. eigenvalues --   -1.06690  -1.06648  -1.06101  -1.06051  -1.05290
 Alpha  occ. eigenvalues --   -1.05270  -1.04850  -1.04826  -1.04812  -1.04311
 Alpha  occ. eigenvalues --   -1.04296  -1.04263  -1.04158  -1.04132  -1.04044
 Alpha  occ. eigenvalues --   -1.03953  -1.03908  -1.03894  -1.03876  -1.03801
 Alpha  occ. eigenvalues --   -1.03732  -1.03487  -1.03467  -1.03433  -1.03104
 Alpha  occ. eigenvalues --   -1.03008  -1.02923  -1.02846  -0.93764  -0.86556
 Alpha  occ. eigenvalues --   -0.86524  -0.86419  -0.86352  -0.86348  -0.86318
 Alpha  occ. eigenvalues --   -0.86312  -0.86209  -0.86195  -0.85667  -0.82379
 Alpha  occ. eigenvalues --   -0.79011  -0.71881  -0.69153  -0.67450  -0.64284
 Alpha  occ. eigenvalues --   -0.63713  -0.63633  -0.63613  -0.63467  -0.63417
 Alpha  occ. eigenvalues --   -0.63189  -0.62816  -0.62643  -0.62391  -0.62149
 Alpha  occ. eigenvalues --   -0.61647  -0.61622  -0.61511  -0.60986  -0.60972
 Alpha  occ. eigenvalues --   -0.60879  -0.60259  -0.59361  -0.59343  -0.59318
 Alpha  occ. eigenvalues --   -0.59276  -0.59195  -0.58037  -0.57885  -0.57850
 Alpha  occ. eigenvalues --   -0.57742  -0.57350  -0.57273  -0.57207  -0.56317
 Alpha  occ. eigenvalues --   -0.56286  -0.56123  -0.55764  -0.54977  -0.54927
 Alpha  occ. eigenvalues --   -0.54870  -0.54326  -0.54225  -0.54166  -0.54097
 Alpha  occ. eigenvalues --   -0.54066  -0.53899  -0.53251  -0.53194  -0.53063
 Alpha  occ. eigenvalues --   -0.53043  -0.52870  -0.52662  -0.52621  -0.52564
 Alpha  occ. eigenvalues --   -0.52499  -0.52411  -0.52344  -0.51938  -0.51723
 Alpha  occ. eigenvalues --   -0.51691  -0.51509  -0.51489  -0.51449  -0.51429
 Alpha  occ. eigenvalues --   -0.51377  -0.51300  -0.50966  -0.50792  -0.50779
 Alpha  occ. eigenvalues --   -0.50710  -0.50346  -0.49926  -0.49875  -0.49391
 Alpha  occ. eigenvalues --   -0.49327  -0.49304  -0.49184  -0.49067  -0.48968
 Alpha  occ. eigenvalues --   -0.48869  -0.48314  -0.48176  -0.48020  -0.47368
 Alpha  occ. eigenvalues --   -0.47321  -0.47244  -0.47001  -0.46952  -0.46803
 Alpha  occ. eigenvalues --   -0.46795  -0.46492  -0.46422  -0.46319  -0.46255
 Alpha  occ. eigenvalues --   -0.46195  -0.46172  -0.45179  -0.45088  -0.44909
 Alpha  occ. eigenvalues --   -0.44823  -0.44154  -0.44100  -0.43944  -0.43330
 Alpha  occ. eigenvalues --   -0.43268  -0.43165  -0.43125  -0.43060  -0.42898
 Alpha  occ. eigenvalues --   -0.42766  -0.42724  -0.42703  -0.42623  -0.42600
 Alpha  occ. eigenvalues --   -0.42562  -0.42505  -0.42452  -0.42343  -0.42294
 Alpha  occ. eigenvalues --   -0.42265  -0.42096  -0.42044  -0.41906  -0.41874
 Alpha  occ. eigenvalues --   -0.41166  -0.41153  -0.41002  -0.40660  -0.40461
 Alpha  occ. eigenvalues --   -0.40421  -0.40406  -0.39669  -0.39348  -0.39308
 Alpha  occ. eigenvalues --   -0.36456  -0.32202  -0.29485  -0.25468  -0.25340
 Alpha  occ. eigenvalues --   -0.21258
 Alpha virt. eigenvalues --   -0.10578  -0.10159  -0.08164  -0.08021  -0.06725
 Alpha virt. eigenvalues --   -0.06684  -0.06556  -0.05759  -0.04994  -0.04941
 Alpha virt. eigenvalues --   -0.03589  -0.03425  -0.03385  -0.03005  -0.02881

 Mulliken charges:
               1
     1  Cl  -0.849604
     2  C   -0.095085
     3  C    0.053083
     4  C   -0.087804
     5  C   -0.032599
     6  C   -0.045977
     7  C   -0.049569
     8  H    0.018750
     9  H    0.022489
    10  H    0.035233
    11  H    0.028889
    12  H    0.034296
    13  C   -0.091389
    14  C    0.049430
    15  H   -0.006142
    16  H    0.030110
    17  H    0.034792
    18  O   -0.659712
    19  O   -0.657949
    20  O   -0.650303
    21  O   -0.660013
    22  W    1.725884
    23  W    1.663584
    24  W    1.673804
    25  W    1.685446
    26  W    1.670435
    27  W    1.726222
    28  W    1.616790
    29  W    1.682787
    30  O   -0.310324
    31  O   -0.359847
    32  O   -0.360246
    33  O   -0.357732
    34  O   -0.661262
    35  O   -0.670255
    36  O   -0.658979
    37  O   -0.661589
    38  O   -0.361698
    39  O   -0.362335
    40  O   -0.278388
    41  O   -0.360303
    42  O   -0.668826
    43  O   -0.660045
    44  O   -0.656028
    45  O   -0.662781
    46  O   -0.361582
    47  O   -0.310277
    48  O   -0.349239
    49  O   -0.359763
    50  W    1.668691
    51  W    1.672806
    52  W    1.665897
    53  W    1.678765
    54  O   -0.723566
    55  O   -0.707965
    56  O   -0.727277
    57  O   -0.721258
    58  O   -0.705849
    59  O   -0.727401
    60  O   -0.724668
    61  O   -0.722791
    62  O   -0.723216
    63  O   -0.708082
    64  O   -0.722333
    65  O   -0.727140
    66  O   -0.805460
    67  O   -0.805424
    68  O   -0.800659
    69  O   -0.814394
    70  K    0.859948
    71  K    0.859360
    72  K    0.854971
    73  V    1.172666
 Sum of Mulliken charges =  -1.00000

 Dipole moment (field-independent basis, Debye):
    X=             51.0039    Y=            -46.4108    Z=            -38.9962  Tot=             79.2216
 Quadrupole moment (field-independent basis, Debye-Ang):
   XX=          -1062.2414   YY=           -824.3039   ZZ=           -923.9507
   XY=            408.8353   XZ=            459.0734   YZ=           -427.0992

 Normal termination of Gaussian 16 at Sat Jun  1 12:12:00 2024.
