 Gaussian 16, Revision C.01,
 Gaussian 16:  ES64L-G16RevC.01  3-Jul-2019

 ----------------------------------------------------------------------
 # def2svp wb97xd scrf=(smd,solvent=acetonitrile) g09default scf=(xqc,m
 axcycle=64) force guess=read nosymm
 ----------------------------------------------------------------------

 ----------
 Title Card
 ----------
 Symbolic Z-matrix:
 Charge = -1 Multiplicity = 1

                          Input orientation:
 ---------------------------------------------------------------------
 Center     Atomic      Atomic             Coordinates (Angstroms)
 Number     Number       Type             X           Y           Z
 ---------------------------------------------------------------------
      1         17           0       -9.843895    7.512402   10.363825
      2          6           0       -8.307954    4.255984   12.241514
      3          6           0       -9.077413    3.940877   11.102791
      4          6           0      -10.010124    2.889753   11.193786
      5          6           0      -10.184909    2.190451   12.378977
      6          6           0       -9.424709    2.524154   13.503853
      7          6           0       -8.482749    3.552585   13.425883
      8          1           0       -7.571671    5.061397   12.198796
      9          1           0      -10.599795    2.628297   10.309191
     10          1           0      -10.912572    1.377998   12.433543
     11          1           0       -9.559038    1.975519   14.436008
     12          1           0       -7.882544    3.808545   14.303322
     13          6           0       -8.941742    4.656598    9.845277
     14          6           0       -8.120209    5.701853    9.598059
     15          1           0       -9.610581    4.321232    9.042245
     16          1           0       -8.043127    6.117144    8.587943
     17          1           0       -7.361192    6.041486   10.313302
     18          8           0       -0.976255   -1.763829    7.443683
     19          8           0       -8.444666   -1.323411    7.451203
     20          8           0       -7.085252    1.364073   10.506083
     21          8           0       -2.314263   -4.373491   10.577705
     22         74           0       -3.420018    0.747783    6.523695
     23         74           0       -6.024952   -3.825230    6.602877
     24         74           0       -3.644013    0.929516   11.384537
     25         74           0       -5.768005   -3.875979   11.455887
     26         74           0       -2.475612   -2.532787    6.374777
     27         74           0       -6.944883   -0.546308    6.350054
     28         74           0       -6.817087   -0.248855   11.600946
     29         74           0       -2.585829   -2.694075   11.630834
     30          8           0       -3.210028    1.934030    5.362407
     31          8           0       -6.133931   -5.073027    5.472431
     32          8           0       -2.714824    1.756353   12.526563
     33          8           0       -6.689304   -4.666962   12.627666
     34          8           0       -2.683164   -0.859203    5.576178
     35          8           0       -6.730001   -2.278081    5.616013
     36          8           0       -5.329091    0.584692   12.379759
     37          8           0       -4.065790   -3.525065   12.427340
     38          8           0        0.281776   -0.006088    9.282562
     39          8           0       -9.702867   -3.012912    9.344555
     40          8           0       -6.450765    3.404085    8.672928
     41          8           0       -2.973506   -6.435182    8.739467
     42          8           0       -1.791828    0.792911    7.483138
     43          8           0       -7.636151   -3.883382    7.555136
     44          8           0       -4.548922    2.248415   10.432690
     45          8           0       -4.859703   -5.233496   10.530505
     46          8           0       -1.656376   -3.473594    5.234692
     47          8           0       -7.810043    0.258060    5.165132
     48          8           0       -8.028193   -0.181860   12.774159
     49          8           0       -1.351642   -2.789729   12.779155
     50         74           0       -1.257832   -0.536743    8.830984
     51         74           0       -8.165635   -2.490835    8.875503
     52         74           0       -5.968721    1.854117    9.062647
     53         74           0       -3.449921   -4.874680    9.175144
     54          8           0       -4.242987   -3.071414    6.088952
     55          8           0       -5.170309   -0.053385    6.037883
     56          8           0       -6.165945   -1.989898   11.906231
     57          8           0       -3.216041   -0.958519   11.912661
     58          8           0       -4.399010    1.588882    7.868337
     59          8           0       -5.012547   -4.647146    7.950258
     60          8           0       -2.367278    0.589937   10.060518
     61          8           0       -7.045286   -3.595826   10.121348
     62          8           0       -2.571176   -3.861093    7.871038
     63          8           0       -6.860137    0.785998    7.812625
     64          8           0       -7.845747   -1.159559   10.152008
     65          8           0       -1.575888   -1.844576   10.142786
     66          8           0       -3.357932   -1.138134    8.015659
     67          8           0       -6.062605   -1.933850    8.040274
     68          8           0       -5.170400   -0.175926    9.948173
     69          8           0       -4.226217   -2.832787    9.983457
     70         19           0       -3.247141   -6.068344    5.702985
     71         19           0       -0.199066    0.016878   12.312544
     72         19           0       -9.215583   -2.918378   12.365789
     73         23           0       -4.705961   -1.516776    8.995004
 ---------------------------------------------------------------------

 SCF Done:  E(UwB97XD) =  -7327.71809002     A.U. after   21 cycles

 Alpha  occ. eigenvalues --  -19.25150 -18.95842 -18.94765 -18.94731 -13.36332
 Alpha  occ. eigenvalues --  -13.36325 -13.36262 -10.69261 -10.69255 -10.69255
 Alpha  occ. eigenvalues --  -10.69254 -10.69249 -10.69249 -10.69192 -10.69187
 Alpha  occ. eigenvalues --  -10.69185 -10.33309 -10.32935 -10.31631 -10.30814
 Alpha  occ. eigenvalues --  -10.30770 -10.30761 -10.30408 -10.30329  -9.50903
 Alpha  occ. eigenvalues --   -7.25758  -7.25497  -7.25474  -3.20994  -3.20984
 Alpha  occ. eigenvalues --   -3.20972  -3.20970  -3.20962  -3.20951  -3.20922
 Alpha  occ. eigenvalues --   -3.20918  -3.20907  -3.20738  -3.20735  -3.20712
 Alpha  occ. eigenvalues --   -2.80011  -1.85433  -1.85424  -1.85391  -1.85345
 Alpha  occ. eigenvalues --   -1.85216  -1.85198  -1.85162  -1.85153  -1.85139
 Alpha  occ. eigenvalues --   -1.85128  -1.85095  -1.85065  -1.84299  -1.84182
 Alpha  occ. eigenvalues --   -1.84173  -1.84169  -1.84125  -1.84114  -1.84037
 Alpha  occ. eigenvalues --   -1.84015  -1.83998  -1.83992  -1.83970  -1.83961
 Alpha  occ. eigenvalues --   -1.83832  -1.83816  -1.83808  -1.83793  -1.83738
 Alpha  occ. eigenvalues --   -1.83717  -1.83700  -1.83671  -1.83656  -1.83555
 Alpha  occ. eigenvalues --   -1.83550  -1.83534  -1.83028  -1.82678  -1.82665
 Alpha  occ. eigenvalues --   -1.50054  -1.50046  -1.49987  -1.08609  -1.06981
 Alpha  occ. eigenvalues --   -1.06945  -1.06931  -1.05875  -1.05859  -1.05819
 Alpha  occ. eigenvalues --   -1.04456  -1.04443  -1.04431  -1.04019  -1.03816
 Alpha  occ. eigenvalues --   -1.03801  -1.03491  -1.03442  -1.03413  -1.03107
 Alpha  occ. eigenvalues --   -1.03056  -1.02366  -1.02353  -1.02332  -1.02259
 Alpha  occ. eigenvalues --   -1.02204  -1.02167  -1.02119  -1.02093  -1.01933
 Alpha  occ. eigenvalues --   -1.01785  -1.01772  -1.01656  -1.01627  -1.01548
 Alpha  occ. eigenvalues --   -1.01221  -1.01041  -1.00707  -1.00651  -1.00640
 Alpha  occ. eigenvalues --   -1.00338  -1.00256  -1.00191  -0.96049  -0.89354
 Alpha  occ. eigenvalues --   -0.85524  -0.85514  -0.85466  -0.85352  -0.85347
 Alpha  occ. eigenvalues --   -0.85344  -0.85341  -0.85291  -0.85275  -0.84205
 Alpha  occ. eigenvalues --   -0.82573  -0.79898  -0.71945  -0.69480  -0.64993
 Alpha  occ. eigenvalues --   -0.62040  -0.61482  -0.61425  -0.61404  -0.60549
 Alpha  occ. eigenvalues --   -0.58912  -0.58854  -0.58769  -0.58765  -0.58732
 Alpha  occ. eigenvalues --   -0.58704  -0.58668  -0.58620  -0.58481  -0.57564
 Alpha  occ. eigenvalues --   -0.57520  -0.57495  -0.57143  -0.56771  -0.56506
 Alpha  occ. eigenvalues --   -0.56463  -0.56424  -0.56072  -0.55968  -0.55381
 Alpha  occ. eigenvalues --   -0.55370  -0.55331  -0.54408  -0.54319  -0.54314
 Alpha  occ. eigenvalues --   -0.54149  -0.53897  -0.53808  -0.53736  -0.52872
 Alpha  occ. eigenvalues --   -0.52764  -0.52669  -0.52622  -0.52605  -0.51655
 Alpha  occ. eigenvalues --   -0.51584  -0.51534  -0.51483  -0.51428  -0.50736
 Alpha  occ. eigenvalues --   -0.50707  -0.50645  -0.50630  -0.50499  -0.50416
 Alpha  occ. eigenvalues --   -0.50299  -0.50207  -0.50136  -0.50110  -0.49980
 Alpha  occ. eigenvalues --   -0.49875  -0.49849  -0.49651  -0.49636  -0.49488
 Alpha  occ. eigenvalues --   -0.49351  -0.49282  -0.49153  -0.49093  -0.49048
 Alpha  occ. eigenvalues --   -0.48916  -0.48799  -0.48734  -0.48642  -0.47717
 Alpha  occ. eigenvalues --   -0.47670  -0.47147  -0.46579  -0.46231  -0.46220
 Alpha  occ. eigenvalues --   -0.46142  -0.45913  -0.45777  -0.45678  -0.45209
 Alpha  occ. eigenvalues --   -0.45174  -0.45163  -0.44836  -0.44686  -0.44663
 Alpha  occ. eigenvalues --   -0.44633  -0.44605  -0.44292  -0.44285  -0.44210
 Alpha  occ. eigenvalues --   -0.43615  -0.43109  -0.42725  -0.42699  -0.42563
 Alpha  occ. eigenvalues --   -0.42397  -0.42220  -0.42159  -0.41981  -0.41720
 Alpha  occ. eigenvalues --   -0.41703  -0.41664  -0.41138  -0.41082  -0.40850
 Alpha  occ. eigenvalues --   -0.40802  -0.40768  -0.40459  -0.40444  -0.40409
 Alpha  occ. eigenvalues --   -0.40277  -0.40238  -0.40230  -0.40192  -0.39922
 Alpha  occ. eigenvalues --   -0.39553  -0.39492  -0.39402  -0.39272  -0.39208
 Alpha  occ. eigenvalues --   -0.39073  -0.39039  -0.38927  -0.38896  -0.38793
 Alpha  occ. eigenvalues --   -0.38344  -0.38266  -0.38223  -0.38188  -0.37189
 Alpha  occ. eigenvalues --   -0.37116  -0.33847  -0.33751  -0.33432  -0.31518
 Alpha  occ. eigenvalues --   -0.27209
 Alpha virt. eigenvalues --   -0.08595  -0.06094  -0.05952  -0.04622  -0.04575
 Alpha virt. eigenvalues --   -0.04436  -0.01452  -0.01345  -0.01290  -0.00866
 Alpha virt. eigenvalues --   -0.00675  -0.00637  -0.00599  -0.00063   0.00049

  Beta  occ. eigenvalues -- -197.12728-129.98933-129.98926-129.98875-101.60853
  Beta  occ. eigenvalues --  -22.44981 -19.28657 -19.28645 -19.28635 -19.28499
  Beta  occ. eigenvalues --  -19.28479 -19.28474 -19.28469 -19.28452 -19.28423
  Beta  occ. eigenvalues --  -19.28420 -19.28401 -19.28286 -19.26901 -19.26889
  Beta  occ. eigenvalues --  -19.26869 -19.26850 -19.26842 -19.26840 -19.26835
  Beta  occ. eigenvalues --  -19.26833 -19.26811 -19.26792 -19.26783 -19.26782
  Beta  occ. eigenvalues --  -19.26755 -19.26747 -19.26737 -19.26736 -19.26733
  Beta  occ. eigenvalues --  -19.26726 -19.26724 -19.26699 -19.26686 -19.26672
  Beta  occ. eigenvalues --  -19.26636 -19.26576 -19.25235 -19.25186 -19.25134
  Beta  occ. eigenvalues --  -19.25126 -18.95490 -18.93309 -18.93242 -13.36332
  Beta  occ. eigenvalues --  -13.36325 -13.36262 -10.69261 -10.69255 -10.69255
  Beta  occ. eigenvalues --  -10.69254 -10.69249 -10.69249 -10.69192 -10.69187
  Beta  occ. eigenvalues --  -10.69185 -10.33477 -10.33332 -10.31538 -10.30934
  Beta  occ. eigenvalues --  -10.30897 -10.30887 -10.30340 -10.30259  -9.51311
  Beta  occ. eigenvalues --   -7.27003  -7.25776  -7.25751  -3.20993  -3.20983
  Beta  occ. eigenvalues --   -3.20970  -3.20967  -3.20956  -3.20945  -3.20917
  Beta  occ. eigenvalues --   -3.20913  -3.20902  -3.20738  -3.20734  -3.20708
  Beta  occ. eigenvalues --   -2.75904  -1.85428  -1.85419  -1.85387  -1.85337
  Beta  occ. eigenvalues --   -1.85212  -1.85195  -1.85156  -1.85149  -1.85131
  Beta  occ. eigenvalues --   -1.85125  -1.85087  -1.85057  -1.84296  -1.84179
  Beta  occ. eigenvalues --   -1.84171  -1.84166  -1.84122  -1.84111  -1.84034
  Beta  occ. eigenvalues --   -1.84013  -1.83996  -1.83989  -1.83967  -1.83958
  Beta  occ. eigenvalues --   -1.83830  -1.83813  -1.83806  -1.83790  -1.83736
  Beta  occ. eigenvalues --   -1.83714  -1.83697  -1.83669  -1.83654  -1.83555
  Beta  occ. eigenvalues --   -1.83548  -1.83532  -1.81656  -1.76924  -1.76780
  Beta  occ. eigenvalues --   -1.50054  -1.50046  -1.49987  -1.08590  -1.06961
  Beta  occ. eigenvalues --   -1.06918  -1.06899  -1.05872  -1.05857  -1.05819
  Beta  occ. eigenvalues --   -1.04458  -1.04443  -1.04431  -1.03962  -1.03816
  Beta  occ. eigenvalues --   -1.03801  -1.03450  -1.03402  -1.03373  -1.03107
  Beta  occ. eigenvalues --   -1.03050  -1.02359  -1.02344  -1.02321  -1.02246
  Beta  occ. eigenvalues --   -1.02200  -1.02155  -1.02118  -1.02084  -1.01928
  Beta  occ. eigenvalues --   -1.01786  -1.01765  -1.01655  -1.01626  -1.01548
  Beta  occ. eigenvalues --   -1.01222  -1.01005  -1.00708  -1.00652  -1.00641
  Beta  occ. eigenvalues --   -1.00220  -1.00137  -1.00101  -0.96311  -0.90290
  Beta  occ. eigenvalues --   -0.85524  -0.85514  -0.85466  -0.85352  -0.85347
  Beta  occ. eigenvalues --   -0.85344  -0.85341  -0.85291  -0.85275  -0.84358
  Beta  occ. eigenvalues --   -0.83662  -0.82068  -0.72302  -0.69605  -0.65306
  Beta  occ. eigenvalues --   -0.62040  -0.61482  -0.61426  -0.61404  -0.60799
  Beta  occ. eigenvalues --   -0.58837  -0.58777  -0.58758  -0.58733  -0.58708
  Beta  occ. eigenvalues --   -0.58690  -0.58662  -0.58605  -0.58482  -0.57506
  Beta  occ. eigenvalues --   -0.57377  -0.57335  -0.57122  -0.57001  -0.56512
  Beta  occ. eigenvalues --   -0.56433  -0.56393  -0.55928  -0.55697  -0.55365
  Beta  occ. eigenvalues --   -0.55354  -0.55337  -0.54623  -0.54315  -0.54302
  Beta  occ. eigenvalues --   -0.54133  -0.53868  -0.53777  -0.53719  -0.52878
  Beta  occ. eigenvalues --   -0.52742  -0.52690  -0.52648  -0.52612  -0.51576
  Beta  occ. eigenvalues --   -0.51507  -0.51498  -0.51455  -0.51417  -0.50938
  Beta  occ. eigenvalues --   -0.50668  -0.50627  -0.50537  -0.50451  -0.50388
  Beta  occ. eigenvalues --   -0.50336  -0.50185  -0.50141  -0.50093  -0.49942
  Beta  occ. eigenvalues --   -0.49868  -0.49846  -0.49647  -0.49628  -0.49486
  Beta  occ. eigenvalues --   -0.49317  -0.49284  -0.49112  -0.49058  -0.49032
  Beta  occ. eigenvalues --   -0.48897  -0.48787  -0.48736  -0.48651  -0.47944
  Beta  occ. eigenvalues --   -0.47632  -0.47620  -0.46108  -0.46097  -0.46051
  Beta  occ. eigenvalues --   -0.45939  -0.45851  -0.45669  -0.45230  -0.45206
  Beta  occ. eigenvalues --   -0.45165  -0.45114  -0.44837  -0.44656  -0.44625
  Beta  occ. eigenvalues --   -0.44613  -0.44574  -0.44310  -0.44283  -0.44204
  Beta  occ. eigenvalues --   -0.43618  -0.43243  -0.42858  -0.42659  -0.42543
  Beta  occ. eigenvalues --   -0.42390  -0.42256  -0.42151  -0.42057  -0.41966
  Beta  occ. eigenvalues --   -0.41702  -0.41662  -0.41622  -0.41136  -0.41042
  Beta  occ. eigenvalues --   -0.40839  -0.40743  -0.40714  -0.40445  -0.40429
  Beta  occ. eigenvalues --   -0.40380  -0.40234  -0.40210  -0.40196  -0.39862
  Beta  occ. eigenvalues --   -0.39667  -0.39563  -0.39275  -0.39236  -0.39208
  Beta  occ. eigenvalues --   -0.39085  -0.39017  -0.38997  -0.38910  -0.38869
  Beta  occ. eigenvalues --   -0.38755  -0.38277  -0.38222  -0.38190  -0.37191
  Beta  occ. eigenvalues --   -0.37112  -0.36002  -0.34495  -0.34394  -0.33810
  Beta  occ. eigenvalues --   -0.29378
  Beta virt. eigenvalues --   -0.06094  -0.05952  -0.04621  -0.04574  -0.04435
  Beta virt. eigenvalues --   -0.01448  -0.01340  -0.01284  -0.00859  -0.00668
  Beta virt. eigenvalues --   -0.00636  -0.00596   0.00042   0.00128   0.00185

 Mulliken charges and spin densities:
               1          2
     1  Cl  -0.409488  -0.509706
     2  C   -0.034475  -0.112850
     3  C    0.009166   0.092873
     4  C   -0.030458  -0.108799
     5  C   -0.031794   0.069168
     6  C    0.004178  -0.125147
     7  C   -0.048458   0.067277
     8  H    0.045615   0.004763
     9  H    0.049388   0.004633
    10  H    0.053602  -0.002508
    11  H    0.053704   0.005517
    12  H    0.052597  -0.002399
    13  C    0.009834  -0.350692
    14  C    0.002143  -0.046722
    15  H    0.074435   0.015152
    16  H    0.102737   0.002099
    17  H    0.105419   0.001765
    18  O   -0.669255  -0.000571
    19  O   -0.667669  -0.000516
    20  O   -0.663205  -0.002017
    21  O   -0.669770  -0.000541
    22  W    1.710482   0.000288
    23  W    1.649967   0.000484
    24  W    1.662717   0.000096
    25  W    1.672265   0.000148
    26  W    1.658024   0.002370
    27  W    1.709733   0.002021
    28  W    1.612126   0.002618
    29  W    1.670140   0.002427
    30  O   -0.339077  -0.000533
    31  O   -0.387477  -0.000559
    32  O   -0.387634  -0.000596
    33  O   -0.385578  -0.000561
    34  O   -0.670337  -0.000396
    35  O   -0.678074  -0.000151
    36  O   -0.668417  -0.000235
    37  O   -0.671307  -0.000314
    38  O   -0.390968   0.001938
    39  O   -0.391768   0.001981
    40  O   -0.331728  -0.001424
    41  O   -0.389752   0.001948
    42  O   -0.676863   0.000021
    43  O   -0.669326   0.000130
    44  O   -0.665427   0.000221
    45  O   -0.671775   0.000078
    46  O   -0.391043   0.002181
    47  O   -0.341063   0.002022
    48  O   -0.382408   0.001707
    49  O   -0.389313   0.002208
    50  W    1.655683   0.002497
    51  W    1.660062   0.002344
    52  W    1.670724   0.003258
    53  W    1.665282   0.002315
    54  O   -0.721340   0.000052
    55  O   -0.705840  -0.000013
    56  O   -0.723337   0.000113
    57  O   -0.719211   0.000033
    58  O   -0.703294  -0.000097
    59  O   -0.724190   0.000104
    60  O   -0.721482   0.000164
    61  O   -0.720017   0.000167
    62  O   -0.721580  -0.000220
    63  O   -0.705725  -0.000035
    64  O   -0.721688  -0.000238
    65  O   -0.725096  -0.000247
    66  O   -0.889527   0.003763
    67  O   -0.890163   0.005788
    68  O   -0.886590   0.005638
    69  O   -0.895105   0.005066
    70  K    0.846223   0.000163
    71  K    0.845823   0.000190
    72  K    0.840695   0.000199
    73  V    1.185332   0.948100
 Sum of Mulliken charges =  -1.00000   0.00000

 Dipole moment (field-independent basis, Debye):
    X=             29.6210    Y=            -13.1237    Z=            -31.3372  Tot=             45.0739
 Quadrupole moment (field-independent basis, Debye-Ang):
   XX=           -789.3725   YY=           -697.9068   ZZ=           -795.4282
   XY=            128.7704   XZ=            194.7648   YZ=            -89.9896

 Normal termination of Gaussian 16 at Sat Jun  1 11:57:17 2024.
