 Gaussian 16, Revision C.01,
 Gaussian 16:  ES64L-G16RevC.01  3-Jul-2019

 ----------------------------------------------------------------------
 # def2svp wb97xd scrf=(smd,solvent=acetonitrile) g09default scf=(xqc,m
 axcycle=64) force guess=read nosymm
 ----------------------------------------------------------------------

 ----------
 Title Card
 ----------
 Symbolic Z-matrix:
 Charge = -1 Multiplicity = 1

                          Input orientation:
 ---------------------------------------------------------------------
 Center     Atomic      Atomic             Coordinates (Angstroms)
 Number     Number       Type             X           Y           Z
 ---------------------------------------------------------------------
      1         17           0       -9.746407    8.265447   10.557238
      2          6           0       -8.333169    4.238218   12.220152
      3          6           0       -9.126541    3.926067   11.100484
      4          6           0      -10.037983    2.858570   11.211638
      5          6           0      -10.202534    2.176957   12.413042
      6          6           0       -9.446318    2.535827   13.529868
      7          6           0       -8.494404    3.551973   13.420105
      8          1           0       -7.574543    5.020895   12.150665
      9          1           0      -10.624643    2.565407   10.336396
     10          1           0      -10.918621    1.354180   12.478524
     11          1           0       -9.583114    2.011150   14.478070
     12          1           0       -7.870185    3.809567   14.279312
     13          6           0       -9.047061    4.664118    9.838247
     14          6           0       -8.343224    5.790885    9.600190
     15          1           0       -9.638772    4.241457    9.018452
     16          1           0       -8.320704    6.217701    8.595349
     17          1           0       -7.707291    6.268785   10.346337
     18          8           0       -0.980189   -1.790768    7.466335
     19          8           0       -8.401482   -1.334386    7.460826
     20          8           0       -7.029400    1.348204   10.472980
     21          8           0       -2.333812   -4.388157   10.553685
     22         74           0       -3.408435    0.691271    6.473829
     23         74           0       -5.993570   -3.817828    6.561647
     24         74           0       -3.616588    0.876703   11.422267
     25         74           0       -5.764011   -3.859130   11.478785
     26         74           0       -2.434533   -2.588962    6.401248
     27         74           0       -6.944439   -0.533179    6.372486
     28         74           0       -6.823908   -0.247563   11.561048
     29         74           0       -2.545139   -2.726685   11.603382
     30          8           0       -3.170816    1.875685    5.294704
     31          8           0       -6.128642   -5.069034    5.420280
     32          8           0       -2.695431    1.722680   12.573525
     33          8           0       -6.678369   -4.661816   12.663771
     34          8           0       -2.659387   -0.911320    5.584961
     35          8           0       -6.706407   -2.267230    5.622271
     36          8           0       -5.315275    0.553739   12.361246
     37          8           0       -4.050784   -3.525319   12.403797
     38          8           0        0.304064   -0.006143    9.283151
     39          8           0       -9.699178   -3.039345    9.328559
     40          8           0       -6.349258    3.429362    8.668165
     41          8           0       -3.003385   -6.486642    8.749913
     42          8           0       -1.786636    0.755692    7.474366
     43          8           0       -7.600748   -3.884159    7.544690
     44          8           0       -4.498928    2.201975   10.429950
     45          8           0       -4.874617   -5.226746   10.525261
     46          8           0       -1.603804   -3.537458    5.259131
     47          8           0       -7.828278    0.275863    5.182572
     48          8           0       -8.049739   -0.166171   12.734471
     49          8           0       -1.304938   -2.852532   12.758177
     50         74           0       -1.252763   -0.524051    8.836432
     51         74           0       -8.139898   -2.536735    8.874355
     52         74           0       -5.872796    1.857490    9.045894
     53         74           0       -3.491771   -4.912283    9.165602
     54          8           0       -4.214111   -3.108063    6.068846
     55          8           0       -5.157329   -0.057373    6.011389
     56          8           0       -6.172991   -1.995651   11.908228
     57          8           0       -3.169418   -0.979492   11.931362
     58          8           0       -4.358076    1.580677    7.831667
     59          8           0       -5.005228   -4.678704    7.920955
     60          8           0       -2.328371    0.574547   10.081778
     61          8           0       -7.051974   -3.613486   10.132216
     62          8           0       -2.569385   -3.903956    7.866376
     63          8           0       -6.812565    0.792098    7.804323
     64          8           0       -7.829096   -1.175913   10.138541
     65          8           0       -1.564466   -1.862251   10.138506
     66          8           0       -3.359153   -1.154314    8.004519
     67          8           0       -6.025375   -1.956151    8.033603
     68          8           0       -5.118275   -0.203780    9.945304
     69          8           0       -4.236873   -2.841887    9.974242
     70         19           0       -3.212989   -6.137220    5.644720
     71         19           0       -0.107067    0.056661   12.347577
     72         19           0       -9.289878   -2.851464   12.436778
     73         23           0       -4.687358   -1.534914    8.987117
 ---------------------------------------------------------------------

 SCF Done:  E(RwB97XD) =  -7327.70149906     A.U. after   12 cycles

 Alpha  occ. eigenvalues -- -197.29696-130.00136-130.00098-130.00010-101.48060
 Alpha  occ. eigenvalues --  -22.62793 -19.33733 -19.33732 -19.33721 -19.33696
 Alpha  occ. eigenvalues --  -19.30723 -19.30677 -19.30675 -19.30672 -19.30668
 Alpha  occ. eigenvalues --  -19.30666 -19.30651 -19.30615 -19.30533 -19.30376
 Alpha  occ. eigenvalues --  -19.30335 -19.30161 -19.29320 -19.29299 -19.29297
 Alpha  occ. eigenvalues --  -19.29293 -19.29272 -19.29260 -19.29226 -19.29192
 Alpha  occ. eigenvalues --  -19.29173 -19.29162 -19.29152 -19.29149 -19.29128
 Alpha  occ. eigenvalues --  -19.29103 -19.29092 -19.29068 -19.29066 -19.29060
 Alpha  occ. eigenvalues --  -19.29047 -19.28984 -19.28966 -19.28962 -19.28914
 Alpha  occ. eigenvalues --  -19.28837 -19.11754 -19.11746 -19.11736 -13.37544
 Alpha  occ. eigenvalues --  -13.37503 -13.37408 -10.70473 -10.70466 -10.70464
 Alpha  occ. eigenvalues --  -10.70432 -10.70425 -10.70424 -10.70339 -10.70332
 Alpha  occ. eigenvalues --  -10.70327 -10.29911 -10.29362 -10.29312 -10.29113
 Alpha  occ. eigenvalues --  -10.29038 -10.29021 -10.28228 -10.27756  -9.38522
 Alpha  occ. eigenvalues --   -7.13347  -7.13303  -7.13296  -3.23312  -3.23310
 Alpha  occ. eigenvalues --   -3.23301  -3.23291  -3.23290  -3.23269  -3.23268
 Alpha  occ. eigenvalues --   -3.23245  -3.23207  -3.22982  -3.22980  -3.22779
 Alpha  occ. eigenvalues --   -2.91970  -1.94330  -1.94297  -1.94290  -1.87717
 Alpha  occ. eigenvalues --   -1.87666  -1.87651  -1.87616  -1.87481  -1.87471
 Alpha  occ. eigenvalues --   -1.87460  -1.87443  -1.87412  -1.87284  -1.87248
 Alpha  occ. eigenvalues --   -1.87090  -1.86622  -1.86502  -1.86496  -1.86476
 Alpha  occ. eigenvalues --   -1.86453  -1.86429  -1.86340  -1.86330  -1.86310
 Alpha  occ. eigenvalues --   -1.86291  -1.86285  -1.86251  -1.86140  -1.86130
 Alpha  occ. eigenvalues --   -1.86121  -1.86108  -1.86043  -1.86018  -1.85987
 Alpha  occ. eigenvalues --   -1.85925  -1.85905  -1.85807  -1.85707  -1.85660
 Alpha  occ. eigenvalues --   -1.51226  -1.51191  -1.51101  -1.13111  -1.11349
 Alpha  occ. eigenvalues --   -1.11274  -1.11261  -1.08979  -1.08536  -1.08492
 Alpha  occ. eigenvalues --   -1.08293  -1.07574  -1.07523  -1.07508  -1.06900
 Alpha  occ. eigenvalues --   -1.06873  -1.06861  -1.06320  -1.06303  -1.05301
 Alpha  occ. eigenvalues --   -1.05290  -1.04973  -1.04964  -1.04956  -1.04181
 Alpha  occ. eigenvalues --   -1.04174  -1.04162  -1.04014  -1.03995  -1.03982
 Alpha  occ. eigenvalues --   -1.03931  -1.03899  -1.03881  -1.03751  -1.03716
 Alpha  occ. eigenvalues --   -1.03606  -1.03543  -1.03300  -1.03250  -1.03102
 Alpha  occ. eigenvalues --   -1.03089  -1.03018  -1.02951  -0.94407  -0.86688
 Alpha  occ. eigenvalues --   -0.86656  -0.86573  -0.86550  -0.86502  -0.86486
 Alpha  occ. eigenvalues --   -0.86466  -0.86461  -0.86387  -0.86352  -0.82838
 Alpha  occ. eigenvalues --   -0.79838  -0.71241  -0.69757  -0.68064  -0.64602
 Alpha  occ. eigenvalues --   -0.63967  -0.63913  -0.63907  -0.63355  -0.63331
 Alpha  occ. eigenvalues --   -0.63202  -0.63032  -0.62714  -0.62618  -0.62044
 Alpha  occ. eigenvalues --   -0.61630  -0.61619  -0.61525  -0.61241  -0.61225
 Alpha  occ. eigenvalues --   -0.61167  -0.60404  -0.59492  -0.59472  -0.59455
 Alpha  occ. eigenvalues --   -0.59426  -0.59381  -0.58638  -0.57988  -0.57965
 Alpha  occ. eigenvalues --   -0.57875  -0.57100  -0.57058  -0.57027  -0.56303
 Alpha  occ. eigenvalues --   -0.56273  -0.56107  -0.55694  -0.54857  -0.54793
 Alpha  occ. eigenvalues --   -0.54760  -0.54571  -0.54233  -0.54106  -0.54079
 Alpha  occ. eigenvalues --   -0.54014  -0.53954  -0.53219  -0.53184  -0.53051
 Alpha  occ. eigenvalues --   -0.53011  -0.52891  -0.52690  -0.52645  -0.52625
 Alpha  occ. eigenvalues --   -0.52567  -0.52539  -0.52468  -0.52456  -0.51591
 Alpha  occ. eigenvalues --   -0.51564  -0.51350  -0.51319  -0.51281  -0.51236
 Alpha  occ. eigenvalues --   -0.51180  -0.51170  -0.50982  -0.50740  -0.50557
 Alpha  occ. eigenvalues --   -0.50541  -0.50534  -0.49871  -0.49847  -0.49308
 Alpha  occ. eigenvalues --   -0.49286  -0.49253  -0.49210  -0.49156  -0.49059
 Alpha  occ. eigenvalues --   -0.48900  -0.48084  -0.48031  -0.47933  -0.47748
 Alpha  occ. eigenvalues --   -0.47376  -0.47282  -0.47236  -0.47003  -0.46926
 Alpha  occ. eigenvalues --   -0.46817  -0.46555  -0.46478  -0.46465  -0.46212
 Alpha  occ. eigenvalues --   -0.46155  -0.46112  -0.45626  -0.45089  -0.44912
 Alpha  occ. eigenvalues --   -0.44873  -0.44198  -0.44152  -0.44040  -0.43581
 Alpha  occ. eigenvalues --   -0.43272  -0.43221  -0.43108  -0.43088  -0.43053
 Alpha  occ. eigenvalues --   -0.42696  -0.42670  -0.42649  -0.42585  -0.42580
 Alpha  occ. eigenvalues --   -0.42494  -0.42450  -0.42434  -0.42273  -0.42257
 Alpha  occ. eigenvalues --   -0.42236  -0.42011  -0.41899  -0.41842  -0.41824
 Alpha  occ. eigenvalues --   -0.41221  -0.41147  -0.41135  -0.41007  -0.40538
 Alpha  occ. eigenvalues --   -0.40509  -0.40496  -0.40416  -0.39439  -0.39423
 Alpha  occ. eigenvalues --   -0.36993  -0.32557  -0.29053  -0.24873  -0.24852
 Alpha  occ. eigenvalues --   -0.23579
 Alpha virt. eigenvalues --   -0.09662  -0.09430  -0.08529  -0.08464  -0.07063
 Alpha virt. eigenvalues --   -0.07037  -0.06908  -0.04660  -0.04301  -0.04259
 Alpha virt. eigenvalues --   -0.03734  -0.03536  -0.03476  -0.03265  -0.03165

 Mulliken charges:
               1
     1  Cl  -0.912318
     2  C   -0.077728
     3  C    0.046257
     4  C   -0.076677
     5  C   -0.033840
     6  C   -0.032754
     7  C   -0.050179
     8  H    0.030835
     9  H    0.030516
    10  H    0.041568
    11  H    0.037434
    12  H    0.040372
    13  C   -0.116835
    14  C    0.018056
    15  H    0.022992
    16  H    0.041157
    17  H    0.027521
    18  O   -0.664064
    19  O   -0.663269
    20  O   -0.655263
    21  O   -0.663771
    22  W    1.737645
    23  W    1.677337
    24  W    1.686554
    25  W    1.697297
    26  W    1.678081
    27  W    1.730556
    28  W    1.622233
    29  W    1.688377
    30  O   -0.320071
    31  O   -0.365481
    32  O   -0.367001
    33  O   -0.361015
    34  O   -0.666283
    35  O   -0.671680
    36  O   -0.662406
    37  O   -0.665256
    38  O   -0.368311
    39  O   -0.365395
    40  O   -0.296627
    41  O   -0.365171
    42  O   -0.670808
    43  O   -0.664212
    44  O   -0.662195
    45  O   -0.666374
    46  O   -0.369561
    47  O   -0.320733
    48  O   -0.361349
    49  O   -0.362477
    50  W    1.676602
    51  W    1.681172
    52  W    1.686108
    53  W    1.687580
    54  O   -0.725121
    55  O   -0.709458
    56  O   -0.726650
    57  O   -0.723495
    58  O   -0.708171
    59  O   -0.728006
    60  O   -0.725568
    61  O   -0.721830
    62  O   -0.725610
    63  O   -0.709825
    64  O   -0.724364
    65  O   -0.727314
    66  O   -0.803431
    67  O   -0.802446
    68  O   -0.798803
    69  O   -0.808815
    70  K    0.864012
    71  K    0.864997
    72  K    0.861335
    73  V    1.191419
 Sum of Mulliken charges =  -1.00000

 Dipole moment (field-independent basis, Debye):
    X=             50.9388    Y=            -51.6724    Z=            -38.6177  Tot=             82.1956
 Quadrupole moment (field-independent basis, Debye-Ang):
   XX=          -1052.1012   YY=           -892.6255   ZZ=           -912.0551
   XY=            456.0578   XZ=            456.4623   YZ=           -483.2418

 Normal termination of Gaussian 16 at Sun Jun  2 11:55:21 2024.
