 Gaussian 16, Revision C.01,
 Gaussian 16:  ES64L-G16RevC.01  3-Jul-2019

 ----------------------------------------------------------------------
 # def2svp wb97xd scrf=(smd,solvent=acetonitrile) g09default scf=(xqc,m
 axcycle=64) force guess=read nosymm
 ----------------------------------------------------------------------

 ----------
 Title Card
 ----------
 Symbolic Z-matrix:
 Charge = -1 Multiplicity = 1

                          Input orientation:
 ---------------------------------------------------------------------
 Center     Atomic      Atomic             Coordinates (Angstroms)
 Number     Number       Type             X           Y           Z
 ---------------------------------------------------------------------
      1         17           0       -9.746407    8.265447   10.557238
      2          6           0       -8.333169    4.238218   12.220152
      3          6           0       -9.126541    3.926067   11.100484
      4          6           0      -10.037983    2.858570   11.211638
      5          6           0      -10.202534    2.176957   12.413042
      6          6           0       -9.446318    2.535827   13.529868
      7          6           0       -8.494404    3.551973   13.420105
      8          1           0       -7.574543    5.020895   12.150665
      9          1           0      -10.624643    2.565407   10.336396
     10          1           0      -10.918621    1.354180   12.478524
     11          1           0       -9.583114    2.011150   14.478070
     12          1           0       -7.870185    3.809567   14.279312
     13          6           0       -9.047061    4.664118    9.838247
     14          6           0       -8.343224    5.790885    9.600190
     15          1           0       -9.638772    4.241457    9.018452
     16          1           0       -8.320704    6.217701    8.595349
     17          1           0       -7.707291    6.268785   10.346337
     18          8           0       -0.980189   -1.790768    7.466335
     19          8           0       -8.401482   -1.334386    7.460826
     20          8           0       -7.029400    1.348204   10.472980
     21          8           0       -2.333812   -4.388157   10.553685
     22         74           0       -3.408435    0.691271    6.473829
     23         74           0       -5.993570   -3.817828    6.561647
     24         74           0       -3.616588    0.876703   11.422267
     25         74           0       -5.764011   -3.859130   11.478785
     26         74           0       -2.434533   -2.588962    6.401248
     27         74           0       -6.944439   -0.533179    6.372486
     28         74           0       -6.823908   -0.247563   11.561048
     29         74           0       -2.545139   -2.726685   11.603382
     30          8           0       -3.170816    1.875685    5.294704
     31          8           0       -6.128642   -5.069034    5.420280
     32          8           0       -2.695431    1.722680   12.573525
     33          8           0       -6.678369   -4.661816   12.663771
     34          8           0       -2.659387   -0.911320    5.584961
     35          8           0       -6.706407   -2.267230    5.622271
     36          8           0       -5.315275    0.553739   12.361246
     37          8           0       -4.050784   -3.525319   12.403797
     38          8           0        0.304064   -0.006143    9.283151
     39          8           0       -9.699178   -3.039345    9.328559
     40          8           0       -6.349258    3.429362    8.668165
     41          8           0       -3.003385   -6.486642    8.749913
     42          8           0       -1.786636    0.755692    7.474366
     43          8           0       -7.600748   -3.884159    7.544690
     44          8           0       -4.498928    2.201975   10.429950
     45          8           0       -4.874617   -5.226746   10.525261
     46          8           0       -1.603804   -3.537458    5.259131
     47          8           0       -7.828278    0.275863    5.182572
     48          8           0       -8.049739   -0.166171   12.734471
     49          8           0       -1.304938   -2.852532   12.758177
     50         74           0       -1.252763   -0.524051    8.836432
     51         74           0       -8.139898   -2.536735    8.874355
     52         74           0       -5.872796    1.857490    9.045894
     53         74           0       -3.491771   -4.912283    9.165602
     54          8           0       -4.214111   -3.108063    6.068846
     55          8           0       -5.157329   -0.057373    6.011389
     56          8           0       -6.172991   -1.995651   11.908228
     57          8           0       -3.169418   -0.979492   11.931362
     58          8           0       -4.358076    1.580677    7.831667
     59          8           0       -5.005228   -4.678704    7.920955
     60          8           0       -2.328371    0.574547   10.081778
     61          8           0       -7.051974   -3.613486   10.132216
     62          8           0       -2.569385   -3.903956    7.866376
     63          8           0       -6.812565    0.792098    7.804323
     64          8           0       -7.829096   -1.175913   10.138541
     65          8           0       -1.564466   -1.862251   10.138506
     66          8           0       -3.359153   -1.154314    8.004519
     67          8           0       -6.025375   -1.956151    8.033603
     68          8           0       -5.118275   -0.203780    9.945304
     69          8           0       -4.236873   -2.841887    9.974242
     70         19           0       -3.212989   -6.137220    5.644720
     71         19           0       -0.107067    0.056661   12.347577
     72         19           0       -9.289878   -2.851464   12.436778
     73         23           0       -4.687358   -1.534914    8.987117
 ---------------------------------------------------------------------

 SCF Done:  E(UwB97XD) =  -7327.70154034     A.U. after   38 cycles

 Alpha  occ. eigenvalues --  -19.24788 -18.94442 -18.93343 -18.93330 -13.36577
 Alpha  occ. eigenvalues --  -13.36488 -13.36481 -10.69504 -10.69500 -10.69498
 Alpha  occ. eigenvalues --  -10.69415 -10.69411 -10.69410 -10.69409 -10.69405
 Alpha  occ. eigenvalues --  -10.69399 -10.32915 -10.32099 -10.31919 -10.30962
 Alpha  occ. eigenvalues --  -10.30946 -10.30934 -10.30532 -10.30464  -9.52888
 Alpha  occ. eigenvalues --   -7.27777  -7.27421  -7.27417  -3.21123  -3.21078
 Alpha  occ. eigenvalues --   -3.21062  -3.21043  -3.21039  -3.21018  -3.21014
 Alpha  occ. eigenvalues --   -3.21006  -3.20999  -3.20889  -3.20866  -3.20840
 Alpha  occ. eigenvalues --   -2.79058  -1.85344  -1.85291  -1.85278  -1.85252
 Alpha  occ. eigenvalues --   -1.85133  -1.85072  -1.85059  -1.85040  -1.85024
 Alpha  occ. eigenvalues --   -1.85014  -1.85002  -1.84942  -1.84387  -1.84278
 Alpha  occ. eigenvalues --   -1.84260  -1.84249  -1.84216  -1.84206  -1.84144
 Alpha  occ. eigenvalues --   -1.84131  -1.84106  -1.84096  -1.84071  -1.84057
 Alpha  occ. eigenvalues --   -1.83952  -1.83915  -1.83884  -1.83878  -1.83856
 Alpha  occ. eigenvalues --   -1.83825  -1.83803  -1.83797  -1.83787  -1.83690
 Alpha  occ. eigenvalues --   -1.83679  -1.83673  -1.82191  -1.81849  -1.81836
 Alpha  occ. eigenvalues --   -1.50274  -1.50190  -1.50187  -1.08631  -1.07004
 Alpha  occ. eigenvalues --   -1.06963  -1.06924  -1.06014  -1.06002  -1.05968
 Alpha  occ. eigenvalues --   -1.04575  -1.04561  -1.04551  -1.03986  -1.03976
 Alpha  occ. eigenvalues --   -1.03771  -1.03384  -1.03359  -1.03336  -1.03021
 Alpha  occ. eigenvalues --   -1.02988  -1.02261  -1.02233  -1.02219  -1.02077
 Alpha  occ. eigenvalues --   -1.02001  -1.01968  -1.01902  -1.01879  -1.01768
 Alpha  occ. eigenvalues --   -1.01744  -1.01731  -1.01618  -1.01585  -1.01556
 Alpha  occ. eigenvalues --   -1.01285  -1.00831  -1.00739  -1.00682  -1.00678
 Alpha  occ. eigenvalues --   -1.00064  -1.00006  -0.99950  -0.96121  -0.89166
 Alpha  occ. eigenvalues --   -0.85711  -0.85634  -0.85631  -0.85563  -0.85546
 Alpha  occ. eigenvalues --   -0.85488  -0.85479  -0.85473  -0.85448  -0.84219
 Alpha  occ. eigenvalues --   -0.82388  -0.81215  -0.71867  -0.69578  -0.65015
 Alpha  occ. eigenvalues --   -0.62326  -0.61703  -0.61665  -0.61641  -0.60516
 Alpha  occ. eigenvalues --   -0.58967  -0.58944  -0.58929  -0.58870  -0.58810
 Alpha  occ. eigenvalues --   -0.58801  -0.58768  -0.58730  -0.58555  -0.57402
 Alpha  occ. eigenvalues --   -0.57365  -0.57347  -0.57050  -0.56675  -0.56514
 Alpha  occ. eigenvalues --   -0.56469  -0.56424  -0.56054  -0.55904  -0.55363
 Alpha  occ. eigenvalues --   -0.55349  -0.55318  -0.54416  -0.54157  -0.54137
 Alpha  occ. eigenvalues --   -0.53930  -0.53725  -0.53682  -0.53660  -0.52694
 Alpha  occ. eigenvalues --   -0.52610  -0.52597  -0.52488  -0.52450  -0.51477
 Alpha  occ. eigenvalues --   -0.51460  -0.51439  -0.51343  -0.51282  -0.50725
 Alpha  occ. eigenvalues --   -0.50542  -0.50534  -0.50472  -0.50377  -0.50293
 Alpha  occ. eigenvalues --   -0.50275  -0.50042  -0.49991  -0.49976  -0.49721
 Alpha  occ. eigenvalues --   -0.49623  -0.49579  -0.49489  -0.49459  -0.49295
 Alpha  occ. eigenvalues --   -0.49254  -0.49209  -0.49149  -0.49098  -0.49034
 Alpha  occ. eigenvalues --   -0.48677  -0.48511  -0.48493  -0.48439  -0.47645
 Alpha  occ. eigenvalues --   -0.47614  -0.47125  -0.46479  -0.46048  -0.46023
 Alpha  occ. eigenvalues --   -0.45890  -0.45765  -0.45745  -0.45606  -0.45212
 Alpha  occ. eigenvalues --   -0.45138  -0.45127  -0.44767  -0.44590  -0.44492
 Alpha  occ. eigenvalues --   -0.44479  -0.44450  -0.44303  -0.44204  -0.44164
 Alpha  occ. eigenvalues --   -0.43478  -0.43033  -0.42554  -0.42512  -0.42436
 Alpha  occ. eigenvalues --   -0.42342  -0.42191  -0.42175  -0.42122  -0.41632
 Alpha  occ. eigenvalues --   -0.41617  -0.41582  -0.41021  -0.40975  -0.40763
 Alpha  occ. eigenvalues --   -0.40752  -0.40724  -0.40354  -0.40340  -0.40302
 Alpha  occ. eigenvalues --   -0.40193  -0.40157  -0.40139  -0.40110  -0.39840
 Alpha  occ. eigenvalues --   -0.39360  -0.39268  -0.39256  -0.39129  -0.39081
 Alpha  occ. eigenvalues --   -0.38899  -0.38875  -0.38818  -0.38785  -0.38700
 Alpha  occ. eigenvalues --   -0.38295  -0.38260  -0.38215  -0.37937  -0.37205
 Alpha  occ. eigenvalues --   -0.37173  -0.34959  -0.34938  -0.33604  -0.30093
 Alpha  occ. eigenvalues --   -0.26065
 Alpha virt. eigenvalues --   -0.12434  -0.06401  -0.06340  -0.04909  -0.04868
 Alpha virt. eigenvalues --   -0.04730  -0.01538  -0.01419  -0.01364  -0.01166
 Alpha virt. eigenvalues --   -0.00939  -0.00932  -0.00897  -0.00159  -0.00102

  Beta  occ. eigenvalues -- -197.11208-129.99164-129.99077-129.99076-101.62892
  Beta  occ. eigenvalues --  -22.43599 -19.28537 -19.28502 -19.28456 -19.28388
  Beta  occ. eigenvalues --  -19.28378 -19.28357 -19.28346 -19.28343 -19.28328
  Beta  occ. eigenvalues --  -19.28277 -19.28238 -19.28147 -19.26945 -19.26899
  Beta  occ. eigenvalues --  -19.26892 -19.26876 -19.26862 -19.26832 -19.26820
  Beta  occ. eigenvalues --  -19.26818 -19.26814 -19.26796 -19.26790 -19.26774
  Beta  occ. eigenvalues --  -19.26765 -19.26763 -19.26757 -19.26753 -19.26749
  Beta  occ. eigenvalues --  -19.26745 -19.26728 -19.26725 -19.26719 -19.26696
  Beta  occ. eigenvalues --  -19.26649 -19.26586 -19.24842 -19.24827 -19.24783
  Beta  occ. eigenvalues --  -19.24763 -18.94096 -18.91885 -18.91859 -13.36577
  Beta  occ. eigenvalues --  -13.36488 -13.36481 -10.69504 -10.69500 -10.69498
  Beta  occ. eigenvalues --  -10.69415 -10.69411 -10.69410 -10.69409 -10.69405
  Beta  occ. eigenvalues --  -10.69399 -10.33164 -10.32225 -10.31875 -10.31063
  Beta  occ. eigenvalues --  -10.31056 -10.31026 -10.30478 -10.30409  -9.53349
  Beta  occ. eigenvalues --   -7.29228  -7.27736  -7.27733  -3.21123  -3.21072
  Beta  occ. eigenvalues --   -3.21061  -3.21043  -3.21033  -3.21012  -3.21008
  Beta  occ. eigenvalues --   -3.21000  -3.20993  -3.20888  -3.20862  -3.20835
  Beta  occ. eigenvalues --   -2.74987  -1.85339  -1.85286  -1.85274  -1.85244
  Beta  occ. eigenvalues --   -1.85127  -1.85067  -1.85054  -1.85035  -1.85016
  Beta  occ. eigenvalues --   -1.85006  -1.84995  -1.84934  -1.84384  -1.84276
  Beta  occ. eigenvalues --   -1.84257  -1.84247  -1.84213  -1.84202  -1.84141
  Beta  occ. eigenvalues --   -1.84129  -1.84102  -1.84092  -1.84068  -1.84054
  Beta  occ. eigenvalues --   -1.83950  -1.83912  -1.83881  -1.83875  -1.83853
  Beta  occ. eigenvalues --   -1.83823  -1.83800  -1.83794  -1.83784  -1.83687
  Beta  occ. eigenvalues --   -1.83676  -1.83671  -1.80848  -1.76108  -1.76051
  Beta  occ. eigenvalues --   -1.50274  -1.50190  -1.50187  -1.08613  -1.06985
  Beta  occ. eigenvalues --   -1.06939  -1.06896  -1.06012  -1.06000  -1.05967
  Beta  occ. eigenvalues --   -1.04577  -1.04560  -1.04551  -1.03988  -1.03975
  Beta  occ. eigenvalues --   -1.03704  -1.03353  -1.03318  -1.03297  -1.03021
  Beta  occ. eigenvalues --   -1.02981  -1.02243  -1.02210  -1.02202  -1.02068
  Beta  occ. eigenvalues --   -1.01995  -1.01955  -1.01898  -1.01865  -1.01764
  Beta  occ. eigenvalues --   -1.01741  -1.01729  -1.01615  -1.01582  -1.01540
  Beta  occ. eigenvalues --   -1.01286  -1.00792  -1.00738  -1.00681  -1.00678
  Beta  occ. eigenvalues --   -0.99930  -0.99883  -0.99834  -0.96332  -0.89790
  Beta  occ. eigenvalues --   -0.85711  -0.85634  -0.85631  -0.85563  -0.85546
  Beta  occ. eigenvalues --   -0.85488  -0.85479  -0.85473  -0.85447  -0.84856
  Beta  occ. eigenvalues --   -0.84313  -0.82686  -0.72110  -0.69693  -0.65242
  Beta  occ. eigenvalues --   -0.62326  -0.61703  -0.61665  -0.61640  -0.60707
  Beta  occ. eigenvalues --   -0.58961  -0.58943  -0.58927  -0.58799  -0.58786
  Beta  occ. eigenvalues --   -0.58761  -0.58742  -0.58673  -0.58556  -0.57366
  Beta  occ. eigenvalues --   -0.57218  -0.57177  -0.56999  -0.56844  -0.56517
  Beta  occ. eigenvalues --   -0.56436  -0.56388  -0.55860  -0.55646  -0.55345
  Beta  occ. eigenvalues --   -0.55332  -0.55318  -0.54601  -0.54149  -0.54129
  Beta  occ. eigenvalues --   -0.53919  -0.53683  -0.53656  -0.53620  -0.52738
  Beta  occ. eigenvalues --   -0.52638  -0.52586  -0.52468  -0.52444  -0.51451
  Beta  occ. eigenvalues --   -0.51434  -0.51432  -0.51275  -0.51211  -0.50892
  Beta  occ. eigenvalues --   -0.50515  -0.50470  -0.50442  -0.50321  -0.50246
  Beta  occ. eigenvalues --   -0.50159  -0.50011  -0.49989  -0.49945  -0.49667
  Beta  occ. eigenvalues --   -0.49599  -0.49545  -0.49480  -0.49448  -0.49294
  Beta  occ. eigenvalues --   -0.49232  -0.49206  -0.49121  -0.49084  -0.49013
  Beta  occ. eigenvalues --   -0.48671  -0.48511  -0.48490  -0.48431  -0.47767
  Beta  occ. eigenvalues --   -0.47576  -0.47549  -0.45944  -0.45904  -0.45852
  Beta  occ. eigenvalues --   -0.45822  -0.45671  -0.45562  -0.45212  -0.45161
  Beta  occ. eigenvalues --   -0.45131  -0.45047  -0.44766  -0.44588  -0.44478
  Beta  occ. eigenvalues --   -0.44425  -0.44418  -0.44285  -0.44182  -0.44150
  Beta  occ. eigenvalues --   -0.43474  -0.43136  -0.42493  -0.42463  -0.42397
  Beta  occ. eigenvalues --   -0.42268  -0.42203  -0.42153  -0.42137  -0.41615
  Beta  occ. eigenvalues --   -0.41595  -0.41559  -0.41308  -0.41027  -0.40928
  Beta  occ. eigenvalues --   -0.40748  -0.40695  -0.40647  -0.40338  -0.40331
  Beta  occ. eigenvalues --   -0.40285  -0.40144  -0.40127  -0.40115  -0.39784
  Beta  occ. eigenvalues --   -0.39622  -0.39359  -0.39169  -0.39109  -0.39090
  Beta  occ. eigenvalues --   -0.38897  -0.38846  -0.38829  -0.38782  -0.38726
  Beta  occ. eigenvalues --   -0.38672  -0.38296  -0.38256  -0.38213  -0.37950
  Beta  occ. eigenvalues --   -0.37207  -0.37167  -0.35929  -0.35904  -0.33863
  Beta  occ. eigenvalues --   -0.30886
  Beta virt. eigenvalues --   -0.06400  -0.06340  -0.04908  -0.04867  -0.04729
  Beta virt. eigenvalues --   -0.01534  -0.01415  -0.01359  -0.01160  -0.00934
  Beta virt. eigenvalues --   -0.00927  -0.00893  -0.00148  -0.00088  -0.00053

 Mulliken charges and spin densities:
               1          2
     1  Cl  -0.337158  -0.628359
     2  C   -0.035657  -0.088545
     3  C    0.013805   0.050235
     4  C   -0.035042  -0.084643
     5  C   -0.031557   0.054156
     6  C    0.006470  -0.107990
     7  C   -0.048497   0.054223
     8  H    0.050150   0.003895
     9  H    0.050693   0.003640
    10  H    0.055578  -0.001915
    11  H    0.056354   0.004744
    12  H    0.054164  -0.001901
    13  C    0.001540  -0.231586
    14  C   -0.045522  -0.036764
    15  H    0.074915   0.009736
    16  H    0.095129   0.002540
    17  H    0.086757   0.000534
    18  O   -0.673021  -0.000574
    19  O   -0.672189  -0.000527
    20  O   -0.666617  -0.001668
    21  O   -0.672847  -0.000543
    22  W    1.721267   0.000358
    23  W    1.663179   0.000480
    24  W    1.673953   0.000175
    25  W    1.683389   0.000199
    26  W    1.664518   0.002678
    27  W    1.713061   0.002402
    28  W    1.613971   0.003315
    29  W    1.674045   0.002807
    30  O   -0.350047  -0.000541
    31  O   -0.393885  -0.000564
    32  O   -0.395428  -0.000609
    33  O   -0.389782  -0.000563
    34  O   -0.674669  -0.000298
    35  O   -0.679209  -0.000049
    36  O   -0.671523  -0.000146
    37  O   -0.674163  -0.000229
    38  O   -0.398053   0.002049
    39  O   -0.395485   0.002075
    40  O   -0.339878   0.000022
    41  O   -0.395218   0.002043
    42  O   -0.678646   0.000044
    43  O   -0.672936   0.000132
    44  O   -0.670749   0.000259
    45  O   -0.674893   0.000083
    46  O   -0.399447   0.002279
    47  O   -0.352516   0.002196
    48  O   -0.394263   0.001838
    49  O   -0.392653   0.002368
    50  W    1.662559   0.002684
    51  W    1.666862   0.002576
    52  W    1.679195   0.003694
    53  W    1.673064   0.002513
    54  O   -0.723145   0.000103
    55  O   -0.707876   0.000018
    56  O   -0.723317   0.000165
    57  O   -0.721821   0.000061
    58  O   -0.706055   0.000040
    59  O   -0.725213   0.000142
    60  O   -0.723069   0.000193
    61  O   -0.719571   0.000184
    62  O   -0.724149  -0.000184
    63  O   -0.708622  -0.000052
    64  O   -0.723364  -0.000211
    65  O   -0.725181  -0.000219
    66  O   -0.886030   0.004972
    67  O   -0.885855   0.007124
    68  O   -0.882268   0.006790
    69  O   -0.889228   0.006352
    70  K    0.850440   0.000185
    71  K    0.851810   0.000204
    72  K    0.847705   0.000214
    73  V    1.201742   0.938967
 Sum of Mulliken charges =  -1.00000   0.00000

 Dipole moment (field-independent basis, Debye):
    X=             28.5775    Y=            -13.6513    Z=            -30.4932  Tot=             43.9644
 Quadrupole moment (field-independent basis, Debye-Ang):
   XX=           -765.4587   YY=           -708.3904   ZZ=           -777.0464
   XY=            128.6209   XZ=            178.4346   YZ=            -92.8327

 Normal termination of Gaussian 16 at Sun Jun  2 11:44:30 2024.
