 Gaussian 16, Revision C.01,
 Gaussian 16:  ES64L-G16RevC.01  3-Jul-2019

 ----------------------------------------------------------------------
 # def2svp wb97xd scrf=(smd,solvent=acetonitrile) g09default scf=(xqc,m
 axcycle=64) force guess=read nosymm
 ----------------------------------------------------------------------

 ----------
 Title Card
 ----------
 Symbolic Z-matrix:
 Charge = -1 Multiplicity = 1

                          Input orientation:
 ---------------------------------------------------------------------
 Center     Atomic      Atomic             Coordinates (Angstroms)
 Number     Number       Type             X           Y           Z
 ---------------------------------------------------------------------
      1         17           0       -9.725544    8.273763   10.557503
      2          6           0       -8.335004    4.239560   12.219259
      3          6           0       -9.129940    3.927632   11.100649
      4          6           0      -10.040273    2.859254   11.212490
      5          6           0      -10.202799    2.176943   12.413763
      6          6           0       -9.445602    2.535881   13.529700
      7          6           0       -8.494298    3.552462   13.419202
      8          1           0       -7.576238    5.022148   12.149347
      9          1           0      -10.628418    2.566249   10.338192
     10          1           0      -10.919354    1.354549   12.479877
     11          1           0       -9.582368    2.012122   14.478527
     12          1           0       -7.869913    3.810522   14.278098
     13          6           0       -9.054352    4.666887    9.838697
     14          6           0       -8.358946    5.799486    9.603004
     15          1           0       -9.641648    4.239897    9.018032
     16          1           0       -8.341061    6.230280    8.599617
     17          1           0       -7.727359    6.280652   10.350541
     18          8           0       -0.978737   -1.793023    7.466735
     19          8           0       -8.399730   -1.334287    7.460870
     20          8           0       -7.027681    1.348397   10.472526
     21          8           0       -2.333965   -4.390625   10.553872
     22         74           0       -3.407417    0.689991    6.473420
     23         74           0       -5.992338   -3.817772    6.560466
     24         74           0       -3.615344    0.874212   11.422051
     25         74           0       -5.763239   -3.859580   11.479675
     26         74           0       -2.432649   -2.590783    6.402038
     27         74           0       -6.943885   -0.532820    6.372843
     28         74           0       -6.822970   -0.247775   11.560181
     29         74           0       -2.543950   -2.729303   11.602502
     30          8           0       -3.170632    1.873033    5.293155
     31          8           0       -6.126536   -5.069070    5.419285
     32          8           0       -2.692389    1.719134   12.572728
     33          8           0       -6.679395   -4.660990   12.664564
     34          8           0       -2.658076   -0.913390    5.585725
     35          8           0       -6.705055   -2.267095    5.621975
     36          8           0       -5.314104    0.552754   12.360936
     37          8           0       -4.050263   -3.526558   12.404209
     38          8           0        0.305245   -0.007856    9.283480
     39          8           0       -9.697171   -3.040413    9.329181
     40          8           0       -6.347051    3.430118    8.666930
     41          8           0       -3.005733   -6.488675    8.747941
     42          8           0       -1.785415    0.753720    7.474150
     43          8           0       -7.599647   -3.884114    7.543795
     44          8           0       -4.496926    2.200094   10.429283
     45          8           0       -4.874609   -5.227915   10.526222
     46          8           0       -1.602427   -3.539591    5.260031
     47          8           0       -7.826059    0.277655    5.183131
     48          8           0       -8.049246   -0.167573   12.733579
     49          8           0       -1.303262   -2.853624   12.757236
     50         74           0       -1.251413   -0.525634    8.836572
     51         74           0       -8.138114   -2.537832    8.874422
     52         74           0       -5.871034    1.858100    9.045251
     53         74           0       -3.492841   -4.914220    9.165227
     54          8           0       -4.212874   -3.109236    6.069576
     55          8           0       -5.155805   -0.058917    6.012322
     56          8           0       -6.172226   -1.996057   11.907747
     57          8           0       -3.169513   -0.981935   11.929959
     58          8           0       -4.356700    1.580898    7.830762
     59          8           0       -5.005368   -4.679419    7.921254
     60          8           0       -2.327062    0.572169   10.081304
     61          8           0       -7.050512   -3.613953   10.131702
     62          8           0       -2.568682   -3.906226    7.866709
     63          8           0       -6.811463    0.793339    7.803617
     64          8           0       -7.828249   -1.176257   10.138368
     65          8           0       -1.562688   -1.864303   10.138640
     66          8           0       -3.357797   -1.155733    8.005490
     67          8           0       -6.024001   -1.956686    8.033649
     68          8           0       -5.117749   -0.205084    9.944603
     69          8           0       -4.236166   -2.843477    9.974033
     70         19           0       -3.212455   -6.136390    5.644809
     71         19           0       -0.107000    0.055999   12.345130
     72         19           0       -9.289045   -2.845780   12.436057
     73         23           0       -4.686247   -1.536340    8.987461
 ---------------------------------------------------------------------

 SCF Done:  E(RwB97XD) =  -7327.70156988     A.U. after   12 cycles

 Alpha  occ. eigenvalues -- -197.29671-130.00126-130.00089-129.99995-101.48111
 Alpha  occ. eigenvalues --  -22.62771 -19.33725 -19.33719 -19.33710 -19.33689
 Alpha  occ. eigenvalues --  -19.30726 -19.30680 -19.30678 -19.30673 -19.30669
 Alpha  occ. eigenvalues --  -19.30665 -19.30655 -19.30619 -19.30535 -19.30381
 Alpha  occ. eigenvalues --  -19.30343 -19.30168 -19.29320 -19.29303 -19.29299
 Alpha  occ. eigenvalues --  -19.29295 -19.29273 -19.29259 -19.29225 -19.29194
 Alpha  occ. eigenvalues --  -19.29171 -19.29168 -19.29155 -19.29153 -19.29130
 Alpha  occ. eigenvalues --  -19.29104 -19.29092 -19.29071 -19.29064 -19.29058
 Alpha  occ. eigenvalues --  -19.29048 -19.28986 -19.28968 -19.28963 -19.28913
 Alpha  occ. eigenvalues --  -19.28842 -19.11731 -19.11723 -19.11713 -13.37533
 Alpha  occ. eigenvalues --  -13.37494 -13.37394 -10.70462 -10.70455 -10.70454
 Alpha  occ. eigenvalues --  -10.70423 -10.70416 -10.70415 -10.70324 -10.70317
 Alpha  occ. eigenvalues --  -10.70312 -10.29908 -10.29360 -10.29308 -10.29105
 Alpha  occ. eigenvalues --  -10.29030 -10.29017 -10.28213 -10.27728  -9.38575
 Alpha  occ. eigenvalues --   -7.13400  -7.13355  -7.13348  -3.23316  -3.23313
 Alpha  occ. eigenvalues --   -3.23304  -3.23295  -3.23292  -3.23276  -3.23271
 Alpha  occ. eigenvalues --   -3.23250  -3.23215  -3.22984  -3.22981  -3.22786
 Alpha  occ. eigenvalues --   -2.91955  -1.94317  -1.94283  -1.94276  -1.87718
 Alpha  occ. eigenvalues --   -1.87670  -1.87655  -1.87621  -1.87484  -1.87471
 Alpha  occ. eigenvalues --   -1.87464  -1.87447  -1.87416  -1.87288  -1.87254
 Alpha  occ. eigenvalues --   -1.87095  -1.86625  -1.86506  -1.86499  -1.86481
 Alpha  occ. eigenvalues --   -1.86456  -1.86434  -1.86342  -1.86332  -1.86313
 Alpha  occ. eigenvalues --   -1.86294  -1.86290  -1.86257  -1.86144  -1.86134
 Alpha  occ. eigenvalues --   -1.86125  -1.86112  -1.86047  -1.86024  -1.85989
 Alpha  occ. eigenvalues --   -1.85926  -1.85908  -1.85808  -1.85713  -1.85666
 Alpha  occ. eigenvalues --   -1.51216  -1.51182  -1.51088  -1.13107  -1.11345
 Alpha  occ. eigenvalues --   -1.11265  -1.11256  -1.08979  -1.08536  -1.08493
 Alpha  occ. eigenvalues --   -1.08297  -1.07576  -1.07521  -1.07508  -1.06900
 Alpha  occ. eigenvalues --   -1.06877  -1.06863  -1.06322  -1.06306  -1.05303
 Alpha  occ. eigenvalues --   -1.05292  -1.04974  -1.04966  -1.04958  -1.04183
 Alpha  occ. eigenvalues --   -1.04176  -1.04164  -1.04018  -1.03997  -1.03985
 Alpha  occ. eigenvalues --   -1.03932  -1.03901  -1.03884  -1.03756  -1.03720
 Alpha  occ. eigenvalues --   -1.03607  -1.03543  -1.03307  -1.03259  -1.03105
 Alpha  occ. eigenvalues --   -1.03092  -1.03018  -1.02953  -0.94402  -0.86680
 Alpha  occ. eigenvalues --   -0.86649  -0.86561  -0.86539  -0.86493  -0.86477
 Alpha  occ. eigenvalues --   -0.86458  -0.86453  -0.86375  -0.86339  -0.82832
 Alpha  occ. eigenvalues --   -0.79828  -0.71301  -0.69741  -0.68057  -0.64606
 Alpha  occ. eigenvalues --   -0.63973  -0.63915  -0.63908  -0.63352  -0.63329
 Alpha  occ. eigenvalues --   -0.63198  -0.63018  -0.62712  -0.62616  -0.62040
 Alpha  occ. eigenvalues --   -0.61630  -0.61620  -0.61524  -0.61246  -0.61230
 Alpha  occ. eigenvalues --   -0.61168  -0.60406  -0.59492  -0.59475  -0.59457
 Alpha  occ. eigenvalues --   -0.59426  -0.59381  -0.58624  -0.57991  -0.57967
 Alpha  occ. eigenvalues --   -0.57875  -0.57097  -0.57054  -0.57023  -0.56303
 Alpha  occ. eigenvalues --   -0.56276  -0.56111  -0.55697  -0.54858  -0.54798
 Alpha  occ. eigenvalues --   -0.54764  -0.54562  -0.54235  -0.54107  -0.54082
 Alpha  occ. eigenvalues --   -0.54015  -0.53955  -0.53223  -0.53186  -0.53055
 Alpha  occ. eigenvalues --   -0.53017  -0.52896  -0.52690  -0.52649  -0.52628
 Alpha  occ. eigenvalues --   -0.52569  -0.52535  -0.52467  -0.52457  -0.51596
 Alpha  occ. eigenvalues --   -0.51569  -0.51346  -0.51317  -0.51278  -0.51235
 Alpha  occ. eigenvalues --   -0.51178  -0.51170  -0.50973  -0.50746  -0.50565
 Alpha  occ. eigenvalues --   -0.50546  -0.50541  -0.49871  -0.49847  -0.49304
 Alpha  occ. eigenvalues --   -0.49288  -0.49254  -0.49215  -0.49158  -0.49063
 Alpha  occ. eigenvalues --   -0.48900  -0.48085  -0.48032  -0.47934  -0.47744
 Alpha  occ. eigenvalues --   -0.47380  -0.47283  -0.47239  -0.47002  -0.46924
 Alpha  occ. eigenvalues --   -0.46816  -0.46556  -0.46482  -0.46465  -0.46209
 Alpha  occ. eigenvalues --   -0.46153  -0.46113  -0.45620  -0.45093  -0.44914
 Alpha  occ. eigenvalues --   -0.44874  -0.44202  -0.44152  -0.44040  -0.43569
 Alpha  occ. eigenvalues --   -0.43271  -0.43220  -0.43109  -0.43091  -0.43055
 Alpha  occ. eigenvalues --   -0.42697  -0.42671  -0.42650  -0.42586  -0.42580
 Alpha  occ. eigenvalues --   -0.42495  -0.42451  -0.42435  -0.42274  -0.42258
 Alpha  occ. eigenvalues --   -0.42237  -0.42014  -0.41902  -0.41844  -0.41825
 Alpha  occ. eigenvalues --   -0.41209  -0.41148  -0.41136  -0.41008  -0.40540
 Alpha  occ. eigenvalues --   -0.40510  -0.40495  -0.40413  -0.39441  -0.39424
 Alpha  occ. eigenvalues --   -0.36991  -0.32553  -0.29077  -0.24917  -0.24896
 Alpha  occ. eigenvalues --   -0.23588
 Alpha virt. eigenvalues --   -0.09644  -0.09410  -0.08538  -0.08472  -0.07071
 Alpha virt. eigenvalues --   -0.07043  -0.06918  -0.04648  -0.04285  -0.04242
 Alpha virt. eigenvalues --   -0.03735  -0.03533  -0.03477  -0.03268  -0.03166

 Mulliken charges:
               1
     1  Cl  -0.909311
     2  C   -0.078015
     3  C    0.046688
     4  C   -0.077024
     5  C   -0.033873
     6  C   -0.032972
     7  C   -0.050209
     8  H    0.030911
     9  H    0.030418
    10  H    0.041556
    11  H    0.037396
    12  H    0.040333
    13  C   -0.118404
    14  C    0.018807
    15  H    0.022846
    16  H    0.040661
    17  H    0.026672
    18  O   -0.664079
    19  O   -0.663524
    20  O   -0.655341
    21  O   -0.663925
    22  W    1.737525
    23  W    1.677706
    24  W    1.686992
    25  W    1.697721
    26  W    1.678098
    27  W    1.730624
    28  W    1.622411
    29  W    1.688824
    30  O   -0.319844
    31  O   -0.365452
    32  O   -0.367207
    33  O   -0.361118
    34  O   -0.666289
    35  O   -0.671777
    36  O   -0.662345
    37  O   -0.665283
    38  O   -0.368311
    39  O   -0.365329
    40  O   -0.296912
    41  O   -0.365280
    42  O   -0.670918
    43  O   -0.664286
    44  O   -0.662293
    45  O   -0.666368
    46  O   -0.369540
    47  O   -0.320452
    48  O   -0.361947
    49  O   -0.362566
    50  W    1.676842
    51  W    1.681607
    52  W    1.686162
    53  W    1.687931
    54  O   -0.725331
    55  O   -0.709579
    56  O   -0.726684
    57  O   -0.723650
    58  O   -0.708092
    59  O   -0.728123
    60  O   -0.725650
    61  O   -0.721891
    62  O   -0.725671
    63  O   -0.709676
    64  O   -0.724482
    65  O   -0.727347
    66  O   -0.803238
    67  O   -0.802352
    68  O   -0.798675
    69  O   -0.809046
    70  K    0.863710
    71  K    0.864628
    72  K    0.860978
    73  V    1.191636
 Sum of Mulliken charges =  -1.00000

 Dipole moment (field-independent basis, Debye):
    X=             50.8247    Y=            -51.6060    Z=            -38.6476  Tot=             82.0972
 Quadrupole moment (field-independent basis, Debye-Ang):
   XX=          -1050.0172   YY=           -892.7805   ZZ=           -912.6888
   XY=            454.6980   XZ=            455.4398   YZ=           -482.5222

 Normal termination of Gaussian 16 at Sun Jun  2 12:32:58 2024.
