 Gaussian 16, Revision C.01,
 Gaussian 16:  ES64L-G16RevC.01  3-Jul-2019

 ----------------------------------------------------------------------
 # def2svp wb97xd scrf=(smd,solvent=acetonitrile) g09default scf=(xqc,m
 axcycle=64) force guess=read nosymm
 ----------------------------------------------------------------------

 ----------
 Title Card
 ----------
 Symbolic Z-matrix:
 Charge = -1 Multiplicity = 1

                          Input orientation:
 ---------------------------------------------------------------------
 Center     Atomic      Atomic             Coordinates (Angstroms)
 Number     Number       Type             X           Y           Z
 ---------------------------------------------------------------------
      1         17           0       -9.725544    8.273763   10.557503
      2          6           0       -8.335004    4.239560   12.219259
      3          6           0       -9.129940    3.927632   11.100649
      4          6           0      -10.040273    2.859254   11.212490
      5          6           0      -10.202799    2.176943   12.413763
      6          6           0       -9.445602    2.535881   13.529700
      7          6           0       -8.494298    3.552462   13.419202
      8          1           0       -7.576238    5.022148   12.149347
      9          1           0      -10.628418    2.566249   10.338192
     10          1           0      -10.919354    1.354549   12.479877
     11          1           0       -9.582368    2.012122   14.478527
     12          1           0       -7.869913    3.810522   14.278098
     13          6           0       -9.054352    4.666887    9.838697
     14          6           0       -8.358946    5.799486    9.603004
     15          1           0       -9.641648    4.239897    9.018032
     16          1           0       -8.341061    6.230280    8.599617
     17          1           0       -7.727359    6.280652   10.350541
     18          8           0       -0.978737   -1.793023    7.466735
     19          8           0       -8.399730   -1.334287    7.460870
     20          8           0       -7.027681    1.348397   10.472526
     21          8           0       -2.333965   -4.390625   10.553872
     22         74           0       -3.407417    0.689991    6.473420
     23         74           0       -5.992338   -3.817772    6.560466
     24         74           0       -3.615344    0.874212   11.422051
     25         74           0       -5.763239   -3.859580   11.479675
     26         74           0       -2.432649   -2.590783    6.402038
     27         74           0       -6.943885   -0.532820    6.372843
     28         74           0       -6.822970   -0.247775   11.560181
     29         74           0       -2.543950   -2.729303   11.602502
     30          8           0       -3.170632    1.873033    5.293155
     31          8           0       -6.126536   -5.069070    5.419285
     32          8           0       -2.692389    1.719134   12.572728
     33          8           0       -6.679395   -4.660990   12.664564
     34          8           0       -2.658076   -0.913390    5.585725
     35          8           0       -6.705055   -2.267095    5.621975
     36          8           0       -5.314104    0.552754   12.360936
     37          8           0       -4.050263   -3.526558   12.404209
     38          8           0        0.305245   -0.007856    9.283480
     39          8           0       -9.697171   -3.040413    9.329181
     40          8           0       -6.347051    3.430118    8.666930
     41          8           0       -3.005733   -6.488675    8.747941
     42          8           0       -1.785415    0.753720    7.474150
     43          8           0       -7.599647   -3.884114    7.543795
     44          8           0       -4.496926    2.200094   10.429283
     45          8           0       -4.874609   -5.227915   10.526222
     46          8           0       -1.602427   -3.539591    5.260031
     47          8           0       -7.826059    0.277655    5.183131
     48          8           0       -8.049246   -0.167573   12.733579
     49          8           0       -1.303262   -2.853624   12.757236
     50         74           0       -1.251413   -0.525634    8.836572
     51         74           0       -8.138114   -2.537832    8.874422
     52         74           0       -5.871034    1.858100    9.045251
     53         74           0       -3.492841   -4.914220    9.165227
     54          8           0       -4.212874   -3.109236    6.069576
     55          8           0       -5.155805   -0.058917    6.012322
     56          8           0       -6.172226   -1.996057   11.907747
     57          8           0       -3.169513   -0.981935   11.929959
     58          8           0       -4.356700    1.580898    7.830762
     59          8           0       -5.005368   -4.679419    7.921254
     60          8           0       -2.327062    0.572169   10.081304
     61          8           0       -7.050512   -3.613953   10.131702
     62          8           0       -2.568682   -3.906226    7.866709
     63          8           0       -6.811463    0.793339    7.803617
     64          8           0       -7.828249   -1.176257   10.138368
     65          8           0       -1.562688   -1.864303   10.138640
     66          8           0       -3.357797   -1.155733    8.005490
     67          8           0       -6.024001   -1.956686    8.033649
     68          8           0       -5.117749   -0.205084    9.944603
     69          8           0       -4.236166   -2.843477    9.974033
     70         19           0       -3.212455   -6.136390    5.644809
     71         19           0       -0.107000    0.055999   12.345130
     72         19           0       -9.289045   -2.845780   12.436057
     73         23           0       -4.686247   -1.536340    8.987461
 ---------------------------------------------------------------------

 SCF Done:  E(UwB97XD) =  -7327.70158023     A.U. after   38 cycles

 Alpha  occ. eigenvalues --  -19.24774 -18.94414 -18.93313 -18.93304 -13.36566
 Alpha  occ. eigenvalues --  -13.36477 -13.36465 -10.69492 -10.69488 -10.69486
 Alpha  occ. eigenvalues --  -10.69404 -10.69400 -10.69399 -10.69393 -10.69389
 Alpha  occ. eigenvalues --  -10.69383 -10.32934 -10.32111 -10.31933 -10.30975
 Alpha  occ. eigenvalues --  -10.30953 -10.30941 -10.30540 -10.30469  -9.52867
 Alpha  occ. eigenvalues --   -7.27755  -7.27401  -7.27397  -3.21129  -3.21086
 Alpha  occ. eigenvalues --   -3.21064  -3.21046  -3.21041  -3.21019  -3.21018
 Alpha  occ. eigenvalues --   -3.21011  -3.21003  -3.20889  -3.20872  -3.20843
 Alpha  occ. eigenvalues --   -2.79037  -1.85348  -1.85292  -1.85281  -1.85255
 Alpha  occ. eigenvalues --   -1.85137  -1.85074  -1.85061  -1.85044  -1.85027
 Alpha  occ. eigenvalues --   -1.85017  -1.85005  -1.84949  -1.84390  -1.84281
 Alpha  occ. eigenvalues --   -1.84265  -1.84252  -1.84219  -1.84208  -1.84148
 Alpha  occ. eigenvalues --   -1.84133  -1.84108  -1.84098  -1.84073  -1.84060
 Alpha  occ. eigenvalues --   -1.83958  -1.83918  -1.83887  -1.83881  -1.83859
 Alpha  occ. eigenvalues --   -1.83828  -1.83806  -1.83800  -1.83790  -1.83693
 Alpha  occ. eigenvalues --   -1.83682  -1.83676  -1.82174  -1.81829  -1.81819
 Alpha  occ. eigenvalues --   -1.50263  -1.50181  -1.50172  -1.08631  -1.07005
 Alpha  occ. eigenvalues --   -1.06963  -1.06924  -1.06013  -1.06004  -1.05971
 Alpha  occ. eigenvalues --   -1.04575  -1.04564  -1.04553  -1.03988  -1.03977
 Alpha  occ. eigenvalues --   -1.03767  -1.03385  -1.03359  -1.03337  -1.03023
 Alpha  occ. eigenvalues --   -1.02989  -1.02262  -1.02232  -1.02219  -1.02081
 Alpha  occ. eigenvalues --   -1.02002  -1.01970  -1.01903  -1.01881  -1.01770
 Alpha  occ. eigenvalues --   -1.01747  -1.01733  -1.01619  -1.01588  -1.01561
 Alpha  occ. eigenvalues --   -1.01287  -1.00832  -1.00741  -1.00682  -1.00677
 Alpha  occ. eigenvalues --   -1.00061  -1.00003  -0.99945  -0.96130  -0.89177
 Alpha  occ. eigenvalues --   -0.85702  -0.85622  -0.85620  -0.85553  -0.85535
 Alpha  occ. eigenvalues --   -0.85475  -0.85470  -0.85463  -0.85432  -0.84225
 Alpha  occ. eigenvalues --   -0.82409  -0.81206  -0.71874  -0.69584  -0.65024
 Alpha  occ. eigenvalues --   -0.62330  -0.61709  -0.61666  -0.61642  -0.60521
 Alpha  occ. eigenvalues --   -0.58969  -0.58947  -0.58929  -0.58872  -0.58811
 Alpha  occ. eigenvalues --   -0.58803  -0.58771  -0.58732  -0.58556  -0.57401
 Alpha  occ. eigenvalues --   -0.57364  -0.57345  -0.57048  -0.56684  -0.56514
 Alpha  occ. eigenvalues --   -0.56469  -0.56424  -0.56052  -0.55904  -0.55363
 Alpha  occ. eigenvalues --   -0.55350  -0.55316  -0.54425  -0.54155  -0.54136
 Alpha  occ. eigenvalues --   -0.53931  -0.53724  -0.53683  -0.53661  -0.52698
 Alpha  occ. eigenvalues --   -0.52617  -0.52599  -0.52492  -0.52454  -0.51479
 Alpha  occ. eigenvalues --   -0.51462  -0.51439  -0.51342  -0.51283  -0.50735
 Alpha  occ. eigenvalues --   -0.50548  -0.50534  -0.50475  -0.50380  -0.50299
 Alpha  occ. eigenvalues --   -0.50282  -0.50042  -0.49994  -0.49976  -0.49724
 Alpha  occ. eigenvalues --   -0.49626  -0.49581  -0.49491  -0.49463  -0.49295
 Alpha  occ. eigenvalues --   -0.49251  -0.49208  -0.49152  -0.49100  -0.49034
 Alpha  occ. eigenvalues --   -0.48684  -0.48517  -0.48499  -0.48444  -0.47644
 Alpha  occ. eigenvalues --   -0.47613  -0.47125  -0.46479  -0.46049  -0.46025
 Alpha  occ. eigenvalues --   -0.45894  -0.45773  -0.45750  -0.45610  -0.45215
 Alpha  occ. eigenvalues --   -0.45138  -0.45130  -0.44765  -0.44587  -0.44492
 Alpha  occ. eigenvalues --   -0.44479  -0.44450  -0.44304  -0.44205  -0.44164
 Alpha  occ. eigenvalues --   -0.43477  -0.43034  -0.42554  -0.42513  -0.42435
 Alpha  occ. eigenvalues --   -0.42342  -0.42191  -0.42173  -0.42137  -0.41633
 Alpha  occ. eigenvalues --   -0.41617  -0.41585  -0.41023  -0.40976  -0.40760
 Alpha  occ. eigenvalues --   -0.40754  -0.40722  -0.40352  -0.40338  -0.40303
 Alpha  occ. eigenvalues --   -0.40194  -0.40156  -0.40140  -0.40110  -0.39841
 Alpha  occ. eigenvalues --   -0.39362  -0.39267  -0.39253  -0.39127  -0.39078
 Alpha  occ. eigenvalues --   -0.38899  -0.38871  -0.38816  -0.38782  -0.38699
 Alpha  occ. eigenvalues --   -0.38297  -0.38260  -0.38214  -0.37952  -0.37208
 Alpha  occ. eigenvalues --   -0.37172  -0.34949  -0.34925  -0.33608  -0.30142
 Alpha  occ. eigenvalues --   -0.26044
 Alpha virt. eigenvalues --   -0.12401  -0.06411  -0.06347  -0.04916  -0.04875
 Alpha virt. eigenvalues --   -0.04739  -0.01538  -0.01422  -0.01369  -0.01170
 Alpha virt. eigenvalues --   -0.00942  -0.00932  -0.00902  -0.00163  -0.00103

  Beta  occ. eigenvalues -- -197.11177-129.99152-129.99066-129.99060-101.62870
  Beta  occ. eigenvalues --  -22.43571 -19.28541 -19.28506 -19.28453 -19.28389
  Beta  occ. eigenvalues --  -19.28382 -19.28359 -19.28346 -19.28343 -19.28332
  Beta  occ. eigenvalues --  -19.28282 -19.28243 -19.28156 -19.26948 -19.26904
  Beta  occ. eigenvalues --  -19.26898 -19.26873 -19.26862 -19.26831 -19.26820
  Beta  occ. eigenvalues --  -19.26816 -19.26815 -19.26801 -19.26789 -19.26779
  Beta  occ. eigenvalues --  -19.26764 -19.26761 -19.26757 -19.26756 -19.26751
  Beta  occ. eigenvalues --  -19.26747 -19.26727 -19.26725 -19.26720 -19.26698
  Beta  occ. eigenvalues --  -19.26646 -19.26585 -19.24836 -19.24811 -19.24775
  Beta  occ. eigenvalues --  -19.24748 -18.94068 -18.91852 -18.91836 -13.36566
  Beta  occ. eigenvalues --  -13.36477 -13.36465 -10.69492 -10.69488 -10.69486
  Beta  occ. eigenvalues --  -10.69404 -10.69400 -10.69399 -10.69393 -10.69389
  Beta  occ. eigenvalues --  -10.69383 -10.33187 -10.32236 -10.31888 -10.31073
  Beta  occ. eigenvalues --  -10.31068 -10.31035 -10.30485 -10.30414  -9.53326
  Beta  occ. eigenvalues --   -7.29203  -7.27715  -7.27711  -3.21129  -3.21079
  Beta  occ. eigenvalues --   -3.21063  -3.21045  -3.21035  -3.21013  -3.21012
  Beta  occ. eigenvalues --   -3.21005  -3.20998  -3.20888  -3.20867  -3.20838
  Beta  occ. eigenvalues --   -2.74967  -1.85343  -1.85287  -1.85276  -1.85247
  Beta  occ. eigenvalues --   -1.85131  -1.85069  -1.85055  -1.85039  -1.85018
  Beta  occ. eigenvalues --   -1.85008  -1.84998  -1.84940  -1.84388  -1.84279
  Beta  occ. eigenvalues --   -1.84261  -1.84250  -1.84216  -1.84205  -1.84145
  Beta  occ. eigenvalues --   -1.84131  -1.84105  -1.84095  -1.84070  -1.84057
  Beta  occ. eigenvalues --   -1.83955  -1.83915  -1.83884  -1.83878  -1.83856
  Beta  occ. eigenvalues --   -1.83826  -1.83804  -1.83797  -1.83787  -1.83690
  Beta  occ. eigenvalues --   -1.83679  -1.83673  -1.80831  -1.76079  -1.76044
  Beta  occ. eigenvalues --   -1.50263  -1.50181  -1.50172  -1.08613  -1.06986
  Beta  occ. eigenvalues --   -1.06939  -1.06897  -1.06011  -1.06002  -1.05971
  Beta  occ. eigenvalues --   -1.04577  -1.04564  -1.04552  -1.03990  -1.03976
  Beta  occ. eigenvalues --   -1.03700  -1.03354  -1.03318  -1.03299  -1.03022
  Beta  occ. eigenvalues --   -1.02982  -1.02244  -1.02208  -1.02202  -1.02072
  Beta  occ. eigenvalues --   -1.01997  -1.01957  -1.01898  -1.01867  -1.01766
  Beta  occ. eigenvalues --   -1.01744  -1.01731  -1.01616  -1.01585  -1.01545
  Beta  occ. eigenvalues --   -1.01288  -1.00793  -1.00741  -1.00682  -1.00678
  Beta  occ. eigenvalues --   -0.99927  -0.99877  -0.99828  -0.96343  -0.89806
  Beta  occ. eigenvalues --   -0.85702  -0.85622  -0.85620  -0.85553  -0.85535
  Beta  occ. eigenvalues --   -0.85475  -0.85470  -0.85463  -0.85432  -0.84849
  Beta  occ. eigenvalues --   -0.84319  -0.82692  -0.72118  -0.69699  -0.65254
  Beta  occ. eigenvalues --   -0.62330  -0.61709  -0.61666  -0.61641  -0.60715
  Beta  occ. eigenvalues --   -0.58964  -0.58946  -0.58928  -0.58801  -0.58788
  Beta  occ. eigenvalues --   -0.58764  -0.58744  -0.58675  -0.58557  -0.57364
  Beta  occ. eigenvalues --   -0.57217  -0.57176  -0.56998  -0.56854  -0.56518
  Beta  occ. eigenvalues --   -0.56436  -0.56388  -0.55860  -0.55646  -0.55344
  Beta  occ. eigenvalues --   -0.55332  -0.55317  -0.54613  -0.54147  -0.54128
  Beta  occ. eigenvalues --   -0.53921  -0.53684  -0.53655  -0.53621  -0.52744
  Beta  occ. eigenvalues --   -0.52642  -0.52588  -0.52472  -0.52448  -0.51453
  Beta  occ. eigenvalues --   -0.51436  -0.51432  -0.51278  -0.51211  -0.50907
  Beta  occ. eigenvalues --   -0.50522  -0.50472  -0.50447  -0.50323  -0.50250
  Beta  occ. eigenvalues --   -0.50162  -0.50011  -0.49992  -0.49944  -0.49671
  Beta  occ. eigenvalues --   -0.49602  -0.49546  -0.49481  -0.49452  -0.49294
  Beta  occ. eigenvalues --   -0.49229  -0.49205  -0.49124  -0.49086  -0.49014
  Beta  occ. eigenvalues --   -0.48678  -0.48515  -0.48497  -0.48437  -0.47770
  Beta  occ. eigenvalues --   -0.47575  -0.47551  -0.45956  -0.45906  -0.45858
  Beta  occ. eigenvalues --   -0.45825  -0.45672  -0.45564  -0.45215  -0.45161
  Beta  occ. eigenvalues --   -0.45133  -0.45047  -0.44765  -0.44585  -0.44478
  Beta  occ. eigenvalues --   -0.44425  -0.44417  -0.44286  -0.44183  -0.44150
  Beta  occ. eigenvalues --   -0.43472  -0.43139  -0.42492  -0.42462  -0.42398
  Beta  occ. eigenvalues --   -0.42268  -0.42220  -0.42152  -0.42135  -0.41617
  Beta  occ. eigenvalues --   -0.41596  -0.41562  -0.41319  -0.41030  -0.40930
  Beta  occ. eigenvalues --   -0.40748  -0.40692  -0.40648  -0.40336  -0.40329
  Beta  occ. eigenvalues --   -0.40286  -0.40144  -0.40128  -0.40116  -0.39785
  Beta  occ. eigenvalues --   -0.39620  -0.39361  -0.39169  -0.39107  -0.39089
  Beta  occ. eigenvalues --   -0.38896  -0.38844  -0.38826  -0.38777  -0.38722
  Beta  occ. eigenvalues --   -0.38669  -0.38297  -0.38257  -0.38211  -0.37929
  Beta  occ. eigenvalues --   -0.37210  -0.37167  -0.35915  -0.35888  -0.33871
  Beta  occ. eigenvalues --   -0.30894
  Beta virt. eigenvalues --   -0.06409  -0.06347  -0.04915  -0.04874  -0.04739
  Beta virt. eigenvalues --   -0.01534  -0.01417  -0.01364  -0.01164  -0.00937
  Beta virt. eigenvalues --   -0.00927  -0.00897  -0.00152  -0.00090  -0.00054

 Mulliken charges and spin densities:
               1          2
     1  Cl  -0.337842  -0.626315
     2  C   -0.035623  -0.089519
     3  C    0.013658   0.051207
     4  C   -0.035075  -0.085605
     5  C   -0.031586   0.054721
     6  C    0.006510  -0.108949
     7  C   -0.048492   0.054801
     8  H    0.050414   0.003941
     9  H    0.050781   0.003680
    10  H    0.055688  -0.001937
    11  H    0.056470   0.004788
    12  H    0.054240  -0.001925
    13  C    0.002056  -0.236124
    14  C   -0.046004  -0.033202
    15  H    0.075266   0.009899
    16  H    0.095247   0.002355
    17  H    0.086637   0.000099
    18  O   -0.673043  -0.000573
    19  O   -0.672434  -0.000529
    20  O   -0.666699  -0.001657
    21  O   -0.673006  -0.000543
    22  W    1.721107   0.000357
    23  W    1.663516   0.000479
    24  W    1.674344   0.000172
    25  W    1.683775   0.000199
    26  W    1.664516   0.002680
    27  W    1.713104   0.002400
    28  W    1.614201   0.003327
    29  W    1.674484   0.002807
    30  O   -0.349810  -0.000539
    31  O   -0.393848  -0.000564
    32  O   -0.395635  -0.000609
    33  O   -0.389888  -0.000563
    34  O   -0.674657  -0.000295
    35  O   -0.679301  -0.000047
    36  O   -0.671482  -0.000147
    37  O   -0.674201  -0.000226
    38  O   -0.398061   0.002058
    39  O   -0.395434   0.002087
    40  O   -0.340008   0.000069
    41  O   -0.395332   0.002055
    42  O   -0.678741   0.000038
    43  O   -0.673007   0.000128
    44  O   -0.670826   0.000254
    45  O   -0.674892   0.000079
    46  O   -0.399419   0.002273
    47  O   -0.352220   0.002188
    48  O   -0.394889   0.001841
    49  O   -0.392747   0.002363
    50  W    1.662793   0.002695
    51  W    1.667273   0.002588
    52  W    1.679136   0.003725
    53  W    1.673399   0.002530
    54  O   -0.723331   0.000105
    55  O   -0.707945   0.000019
    56  O   -0.723340   0.000165
    57  O   -0.721933   0.000062
    58  O   -0.706005   0.000045
    59  O   -0.725320   0.000143
    60  O   -0.723133   0.000194
    61  O   -0.719611   0.000185
    62  O   -0.724215  -0.000186
    63  O   -0.708497  -0.000056
    64  O   -0.723487  -0.000212
    65  O   -0.725233  -0.000220
    66  O   -0.885827   0.005017
    67  O   -0.885751   0.007143
    68  O   -0.882087   0.006800
    69  O   -0.889378   0.006345
    70  K    0.850117   0.000186
    71  K    0.851413   0.000205
    72  K    0.847317   0.000214
    73  V    1.201833   0.938829
 Sum of Mulliken charges =  -1.00000   0.00000

 Dipole moment (field-independent basis, Debye):
    X=             28.5093    Y=            -13.6166    Z=            -30.5155  Tot=             43.9248
 Quadrupole moment (field-independent basis, Debye-Ang):
   XX=           -764.3586   YY=           -708.9409   ZZ=           -777.4649
   XY=            128.0924   XZ=            177.8607   YZ=            -92.4472

 Normal termination of Gaussian 16 at Sun Jun  2 12:22:08 2024.
