 Gaussian 16, Revision C.01,
 Gaussian 16:  ES64L-G16RevC.01  3-Jul-2019

 ----------------------------------------------------------------------
 # def2svp wb97xd scrf=(smd,solvent=acetonitrile) g09default scf=(xqc,m
 axcycle=64) force guess=read nosymm
 ----------------------------------------------------------------------

 ----------
 Title Card
 ----------
 Symbolic Z-matrix:
 Charge = -1 Multiplicity = 1

                          Input orientation:
 ---------------------------------------------------------------------
 Center     Atomic      Atomic             Coordinates (Angstroms)
 Number     Number       Type             X           Y           Z
 ---------------------------------------------------------------------
      1         17           0       -9.716212    8.275698   10.556981
      2          6           0       -8.335858    4.240259   12.218985
      3          6           0       -9.131226    3.928278   11.100542
      4          6           0      -10.041363    2.859733   11.212798
      5          6           0      -10.203062    2.177020   12.413962
      6          6           0       -9.445025    2.535856   13.529670
      7          6           0       -8.494261    3.552884   13.418625
      8          1           0       -7.577415    5.023293   12.148809
      9          1           0      -10.630403    2.567257   10.339038
     10          1           0      -10.919780    1.355029   12.480433
     11          1           0       -9.581494    2.012192   14.478402
     12          1           0       -7.869863    3.811207   14.277623
     13          6           0       -9.057267    4.667860    9.838781
     14          6           0       -8.365556    5.802946    9.604278
     15          1           0       -9.643055    4.239409    9.017785
     16          1           0       -8.350326    6.236380    8.602063
     17          1           0       -7.735795    6.285131   10.352637
     18          8           0       -0.978189   -1.794020    7.466863
     19          8           0       -8.398819   -1.334177    7.460947
     20          8           0       -7.026890    1.348424   10.472407
     21          8           0       -2.334009   -4.391627   10.553989
     22         74           0       -3.406916    0.689505    6.473550
     23         74           0       -5.991844   -3.817726    6.560075
     24         74           0       -3.614759    0.873322   11.421844
     25         74           0       -5.763021   -3.859999   11.480210
     26         74           0       -2.431975   -2.591331    6.402356
     27         74           0       -6.943334   -0.532896    6.373027
     28         74           0       -6.822565   -0.247927   11.560052
     29         74           0       -2.543483   -2.730482   11.602332
     30          8           0       -3.170469    1.872294    5.292547
     31          8           0       -6.125739   -5.069197    5.418785
     32          8           0       -2.691104    1.717635   12.572145
     33          8           0       -6.679723   -4.660833   12.664758
     34          8           0       -2.657711   -0.914113    5.586121
     35          8           0       -6.704457   -2.267099    5.621813
     36          8           0       -5.313472    0.552364   12.360783
     37          8           0       -4.050105   -3.527209   12.404517
     38          8           0        0.305989   -0.008715    9.283358
     39          8           0       -9.696420   -3.040884    9.329288
     40          8           0       -6.346218    3.430227    8.666403
     41          8           0       -3.006716   -6.489449    8.747167
     42          8           0       -1.784829    0.752821    7.474035
     43          8           0       -7.599222   -3.884033    7.543400
     44          8           0       -4.496088    2.199323   10.428950
     45          8           0       -4.874480   -5.228460   10.526739
     46          8           0       -1.601893   -3.539954    5.260115
     47          8           0       -7.825047    0.278371    5.182955
     48          8           0       -8.048561   -0.167978   12.733384
     49          8           0       -1.302961   -2.854166   12.757058
     50         74           0       -1.250893   -0.526505    8.836632
     51         74           0       -8.137216   -2.538213    8.874378
     52         74           0       -5.870546    1.858458    9.044862
     53         74           0       -3.493225   -4.915101    9.165033
     54          8           0       -4.212440   -3.109727    6.070027
     55          8           0       -5.155105   -0.059570    6.012861
     56          8           0       -6.171764   -1.996273   11.907574
     57          8           0       -3.169757   -0.983071   11.929081
     58          8           0       -4.356084    1.580866    7.830583
     59          8           0       -5.005518   -4.679722    7.921510
     60          8           0       -2.326490    0.571080   10.080986
     61          8           0       -7.049777   -3.614128   10.131470
     62          8           0       -2.568509   -3.906991    7.866985
     63          8           0       -6.810992    0.793750    7.803384
     64          8           0       -7.827753   -1.176393   10.138339
     65          8           0       -1.561906   -1.865281   10.138687
     66          8           0       -3.357265   -1.156324    8.006067
     67          8           0       -6.023238   -1.956979    8.033709
     68          8           0       -5.117471   -0.205652    9.944391
     69          8           0       -4.235941   -2.844244    9.974093
     70         19           0       -3.212330   -6.135949    5.644960
     71         19           0       -0.107292    0.055453   12.343831
     72         19           0       -9.288517   -2.843317   12.435498
     73         23           0       -4.685763   -1.537014    8.987552
 ---------------------------------------------------------------------

 SCF Done:  E(RwB97XD) =  -7327.70160398     A.U. after   11 cycles

 Alpha  occ. eigenvalues -- -197.29657-130.00122-130.00086-129.99991-101.48135
 Alpha  occ. eigenvalues --  -22.62759 -19.33716 -19.33714 -19.33709 -19.33678
 Alpha  occ. eigenvalues --  -19.30726 -19.30682 -19.30681 -19.30672 -19.30671
 Alpha  occ. eigenvalues --  -19.30667 -19.30658 -19.30618 -19.30540 -19.30378
 Alpha  occ. eigenvalues --  -19.30339 -19.30176 -19.29323 -19.29304 -19.29299
 Alpha  occ. eigenvalues --  -19.29291 -19.29273 -19.29258 -19.29226 -19.29194
 Alpha  occ. eigenvalues --  -19.29174 -19.29173 -19.29154 -19.29151 -19.29129
 Alpha  occ. eigenvalues --  -19.29101 -19.29094 -19.29069 -19.29067 -19.29061
 Alpha  occ. eigenvalues --  -19.29046 -19.28989 -19.28971 -19.28965 -19.28917
 Alpha  occ. eigenvalues --  -19.28841 -19.11718 -19.11711 -19.11701 -13.37529
 Alpha  occ. eigenvalues --  -13.37491 -13.37389 -10.70458 -10.70451 -10.70449
 Alpha  occ. eigenvalues --  -10.70420 -10.70413 -10.70412 -10.70320 -10.70313
 Alpha  occ. eigenvalues --  -10.70308 -10.29906 -10.29358 -10.29307 -10.29102
 Alpha  occ. eigenvalues --  -10.29024 -10.29014 -10.28202 -10.27710  -9.38600
 Alpha  occ. eigenvalues --   -7.13425  -7.13380  -7.13373  -3.23317  -3.23315
 Alpha  occ. eigenvalues --   -3.23306  -3.23296  -3.23294  -3.23276  -3.23270
 Alpha  occ. eigenvalues --   -3.23253  -3.23216  -3.22987  -3.22983  -3.22788
 Alpha  occ. eigenvalues --   -2.91945  -1.94310  -1.94275  -1.94267  -1.87720
 Alpha  occ. eigenvalues --   -1.87671  -1.87656  -1.87624  -1.87486  -1.87472
 Alpha  occ. eigenvalues --   -1.87465  -1.87447  -1.87420  -1.87286  -1.87252
 Alpha  occ. eigenvalues --   -1.87101  -1.86626  -1.86507  -1.86500  -1.86481
 Alpha  occ. eigenvalues --   -1.86457  -1.86434  -1.86344  -1.86334  -1.86316
 Alpha  occ. eigenvalues --   -1.86295  -1.86290  -1.86257  -1.86146  -1.86134
 Alpha  occ. eigenvalues --   -1.86125  -1.86114  -1.86047  -1.86025  -1.85992
 Alpha  occ. eigenvalues --   -1.85928  -1.85911  -1.85811  -1.85715  -1.85667
 Alpha  occ. eigenvalues --   -1.51212  -1.51180  -1.51084  -1.13103  -1.11340
 Alpha  occ. eigenvalues --   -1.11265  -1.11251  -1.08978  -1.08536  -1.08493
 Alpha  occ. eigenvalues --   -1.08300  -1.07574  -1.07522  -1.07506  -1.06900
 Alpha  occ. eigenvalues --   -1.06879  -1.06865  -1.06323  -1.06307  -1.05305
 Alpha  occ. eigenvalues --   -1.05294  -1.04974  -1.04967  -1.04960  -1.04185
 Alpha  occ. eigenvalues --   -1.04177  -1.04166  -1.04018  -1.04001  -1.03986
 Alpha  occ. eigenvalues --   -1.03933  -1.03904  -1.03886  -1.03756  -1.03722
 Alpha  occ. eigenvalues --   -1.03610  -1.03545  -1.03303  -1.03253  -1.03110
 Alpha  occ. eigenvalues --   -1.03095  -1.03019  -1.02956  -0.94397  -0.86677
 Alpha  occ. eigenvalues --   -0.86647  -0.86558  -0.86533  -0.86489  -0.86473
 Alpha  occ. eigenvalues --   -0.86456  -0.86451  -0.86371  -0.86335  -0.82831
 Alpha  occ. eigenvalues --   -0.79821  -0.71331  -0.69735  -0.68050  -0.64608
 Alpha  occ. eigenvalues --   -0.63976  -0.63915  -0.63908  -0.63349  -0.63327
 Alpha  occ. eigenvalues --   -0.63195  -0.63011  -0.62710  -0.62615  -0.62037
 Alpha  occ. eigenvalues --   -0.61631  -0.61620  -0.61525  -0.61248  -0.61233
 Alpha  occ. eigenvalues --   -0.61169  -0.60407  -0.59492  -0.59477  -0.59458
 Alpha  occ. eigenvalues --   -0.59426  -0.59379  -0.58618  -0.57992  -0.57968
 Alpha  occ. eigenvalues --   -0.57876  -0.57095  -0.57052  -0.57022  -0.56303
 Alpha  occ. eigenvalues --   -0.56276  -0.56113  -0.55698  -0.54859  -0.54799
 Alpha  occ. eigenvalues --   -0.54765  -0.54558  -0.54237  -0.54107  -0.54083
 Alpha  occ. eigenvalues --   -0.54015  -0.53955  -0.53225  -0.53188  -0.53056
 Alpha  occ. eigenvalues --   -0.53019  -0.52898  -0.52692  -0.52651  -0.52629
 Alpha  occ. eigenvalues --   -0.52571  -0.52532  -0.52467  -0.52458  -0.51597
 Alpha  occ. eigenvalues --   -0.51571  -0.51344  -0.51316  -0.51276  -0.51233
 Alpha  occ. eigenvalues --   -0.51179  -0.51171  -0.50966  -0.50747  -0.50565
 Alpha  occ. eigenvalues --   -0.50550  -0.50544  -0.49871  -0.49848  -0.49303
 Alpha  occ. eigenvalues --   -0.49289  -0.49254  -0.49216  -0.49159  -0.49065
 Alpha  occ. eigenvalues --   -0.48900  -0.48085  -0.48032  -0.47934  -0.47742
 Alpha  occ. eigenvalues --   -0.47381  -0.47283  -0.47240  -0.47002  -0.46924
 Alpha  occ. eigenvalues --   -0.46816  -0.46556  -0.46483  -0.46466  -0.46207
 Alpha  occ. eigenvalues --   -0.46152  -0.46112  -0.45617  -0.45093  -0.44915
 Alpha  occ. eigenvalues --   -0.44874  -0.44204  -0.44151  -0.44039  -0.43562
 Alpha  occ. eigenvalues --   -0.43272  -0.43220  -0.43110  -0.43090  -0.43058
 Alpha  occ. eigenvalues --   -0.42697  -0.42672  -0.42651  -0.42585  -0.42580
 Alpha  occ. eigenvalues --   -0.42494  -0.42451  -0.42436  -0.42275  -0.42259
 Alpha  occ. eigenvalues --   -0.42239  -0.42015  -0.41902  -0.41846  -0.41826
 Alpha  occ. eigenvalues --   -0.41207  -0.41148  -0.41136  -0.41008  -0.40541
 Alpha  occ. eigenvalues --   -0.40511  -0.40494  -0.40407  -0.39442  -0.39425
 Alpha  occ. eigenvalues --   -0.36989  -0.32554  -0.29086  -0.24938  -0.24917
 Alpha  occ. eigenvalues --   -0.23589
 Alpha virt. eigenvalues --   -0.09634  -0.09399  -0.08542  -0.08475  -0.07073
 Alpha virt. eigenvalues --   -0.07044  -0.06923  -0.04638  -0.04276  -0.04232
 Alpha virt. eigenvalues --   -0.03735  -0.03530  -0.03476  -0.03268  -0.03165

 Mulliken charges:
               1
     1  Cl  -0.907824
     2  C   -0.078068
     3  C    0.046816
     4  C   -0.077150
     5  C   -0.033876
     6  C   -0.033072
     7  C   -0.050200
     8  H    0.030938
     9  H    0.030303
    10  H    0.041468
    11  H    0.037305
    12  H    0.040361
    13  C   -0.119085
    14  C    0.019218
    15  H    0.022742
    16  H    0.040355
    17  H    0.026328
    18  O   -0.664047
    19  O   -0.663561
    20  O   -0.655418
    21  O   -0.664021
    22  W    1.737456
    23  W    1.677883
    24  W    1.687139
    25  W    1.697835
    26  W    1.678128
    27  W    1.730649
    28  W    1.622374
    29  W    1.688947
    30  O   -0.320054
    31  O   -0.365586
    32  O   -0.367195
    33  O   -0.360929
    34  O   -0.666225
    35  O   -0.671737
    36  O   -0.662354
    37  O   -0.665321
    38  O   -0.368464
    39  O   -0.365462
    40  O   -0.296766
    41  O   -0.365215
    42  O   -0.670908
    43  O   -0.664270
    44  O   -0.662333
    45  O   -0.666398
    46  O   -0.369511
    47  O   -0.320726
    48  O   -0.361933
    49  O   -0.362446
    50  W    1.676927
    51  W    1.681794
    52  W    1.686108
    53  W    1.688017
    54  O   -0.725433
    55  O   -0.709552
    56  O   -0.726716
    57  O   -0.723732
    58  O   -0.708018
    59  O   -0.728147
    60  O   -0.725711
    61  O   -0.721945
    62  O   -0.725695
    63  O   -0.709581
    64  O   -0.724547
    65  O   -0.727343
    66  O   -0.803256
    67  O   -0.802448
    68  O   -0.798513
    69  O   -0.809083
    70  K    0.863597
    71  K    0.864460
    72  K    0.860858
    73  V    1.191869
 Sum of Mulliken charges =  -1.00000

 Dipole moment (field-independent basis, Debye):
    X=             50.7701    Y=            -51.5679    Z=            -38.6428  Tot=             82.0373
 Quadrupole moment (field-independent basis, Debye-Ang):
   XX=          -1049.0812   YY=           -892.6207   ZZ=           -912.6689
   XY=            453.9505   XZ=            454.8208   YZ=           -482.0984

 Normal termination of Gaussian 16 at Sun Jun  2 13:08:50 2024.
