 Gaussian 16, Revision C.01,
 Gaussian 16:  ES64L-G16RevC.01  3-Jul-2019

 ----------------------------------------------------------------------
 # def2svp wb97xd scrf=(smd,solvent=acetonitrile) g09default scf=(xqc,m
 axcycle=64) force guess=read nosymm
 ----------------------------------------------------------------------

 ----------
 Title Card
 ----------
 Symbolic Z-matrix:
 Charge = -1 Multiplicity = 1

                          Input orientation:
 ---------------------------------------------------------------------
 Center     Atomic      Atomic             Coordinates (Angstroms)
 Number     Number       Type             X           Y           Z
 ---------------------------------------------------------------------
      1         17           0       -9.716212    8.275698   10.556981
      2          6           0       -8.335858    4.240259   12.218985
      3          6           0       -9.131226    3.928278   11.100542
      4          6           0      -10.041363    2.859733   11.212798
      5          6           0      -10.203062    2.177020   12.413962
      6          6           0       -9.445025    2.535856   13.529670
      7          6           0       -8.494261    3.552884   13.418625
      8          1           0       -7.577415    5.023293   12.148809
      9          1           0      -10.630403    2.567257   10.339038
     10          1           0      -10.919780    1.355029   12.480433
     11          1           0       -9.581494    2.012192   14.478402
     12          1           0       -7.869863    3.811207   14.277623
     13          6           0       -9.057267    4.667860    9.838781
     14          6           0       -8.365556    5.802946    9.604278
     15          1           0       -9.643055    4.239409    9.017785
     16          1           0       -8.350326    6.236380    8.602063
     17          1           0       -7.735795    6.285131   10.352637
     18          8           0       -0.978189   -1.794020    7.466863
     19          8           0       -8.398819   -1.334177    7.460947
     20          8           0       -7.026890    1.348424   10.472407
     21          8           0       -2.334009   -4.391627   10.553989
     22         74           0       -3.406916    0.689505    6.473550
     23         74           0       -5.991844   -3.817726    6.560075
     24         74           0       -3.614759    0.873322   11.421844
     25         74           0       -5.763021   -3.859999   11.480210
     26         74           0       -2.431975   -2.591331    6.402356
     27         74           0       -6.943334   -0.532896    6.373027
     28         74           0       -6.822565   -0.247927   11.560052
     29         74           0       -2.543483   -2.730482   11.602332
     30          8           0       -3.170469    1.872294    5.292547
     31          8           0       -6.125739   -5.069197    5.418785
     32          8           0       -2.691104    1.717635   12.572145
     33          8           0       -6.679723   -4.660833   12.664758
     34          8           0       -2.657711   -0.914113    5.586121
     35          8           0       -6.704457   -2.267099    5.621813
     36          8           0       -5.313472    0.552364   12.360783
     37          8           0       -4.050105   -3.527209   12.404517
     38          8           0        0.305989   -0.008715    9.283358
     39          8           0       -9.696420   -3.040884    9.329288
     40          8           0       -6.346218    3.430227    8.666403
     41          8           0       -3.006716   -6.489449    8.747167
     42          8           0       -1.784829    0.752821    7.474035
     43          8           0       -7.599222   -3.884033    7.543400
     44          8           0       -4.496088    2.199323   10.428950
     45          8           0       -4.874480   -5.228460   10.526739
     46          8           0       -1.601893   -3.539954    5.260115
     47          8           0       -7.825047    0.278371    5.182955
     48          8           0       -8.048561   -0.167978   12.733384
     49          8           0       -1.302961   -2.854166   12.757058
     50         74           0       -1.250893   -0.526505    8.836632
     51         74           0       -8.137216   -2.538213    8.874378
     52         74           0       -5.870546    1.858458    9.044862
     53         74           0       -3.493225   -4.915101    9.165033
     54          8           0       -4.212440   -3.109727    6.070027
     55          8           0       -5.155105   -0.059570    6.012861
     56          8           0       -6.171764   -1.996273   11.907574
     57          8           0       -3.169757   -0.983071   11.929081
     58          8           0       -4.356084    1.580866    7.830583
     59          8           0       -5.005518   -4.679722    7.921510
     60          8           0       -2.326490    0.571080   10.080986
     61          8           0       -7.049777   -3.614128   10.131470
     62          8           0       -2.568509   -3.906991    7.866985
     63          8           0       -6.810992    0.793750    7.803384
     64          8           0       -7.827753   -1.176393   10.138339
     65          8           0       -1.561906   -1.865281   10.138687
     66          8           0       -3.357265   -1.156324    8.006067
     67          8           0       -6.023238   -1.956979    8.033709
     68          8           0       -5.117471   -0.205652    9.944391
     69          8           0       -4.235941   -2.844244    9.974093
     70         19           0       -3.212330   -6.135949    5.644960
     71         19           0       -0.107292    0.055453   12.343831
     72         19           0       -9.288517   -2.843317   12.435498
     73         23           0       -4.685763   -1.537014    8.987552
 ---------------------------------------------------------------------

 SCF Done:  E(UwB97XD) =  -7327.70161784     A.U. after   36 cycles

 Alpha  occ. eigenvalues --  -19.24774 -18.94398 -18.93297 -18.93289 -13.36560
 Alpha  occ. eigenvalues --  -13.36474 -13.36460 -10.69487 -10.69483 -10.69481
 Alpha  occ. eigenvalues --  -10.69401 -10.69397 -10.69396 -10.69388 -10.69384
 Alpha  occ. eigenvalues --  -10.69378 -10.32942 -10.32118 -10.31941 -10.30982
 Alpha  occ. eigenvalues --  -10.30959 -10.30946 -10.30543 -10.30475  -9.52849
 Alpha  occ. eigenvalues --   -7.27737  -7.27383  -7.27379  -3.21128  -3.21086
 Alpha  occ. eigenvalues --   -3.21067  -3.21045  -3.21043  -3.21021  -3.21021
 Alpha  occ. eigenvalues --   -3.21011  -3.21003  -3.20890  -3.20873  -3.20846
 Alpha  occ. eigenvalues --   -2.79026  -1.85351  -1.85293  -1.85282  -1.85255
 Alpha  occ. eigenvalues --   -1.85140  -1.85075  -1.85061  -1.85044  -1.85029
 Alpha  occ. eigenvalues --   -1.85018  -1.85007  -1.84947  -1.84391  -1.84282
 Alpha  occ. eigenvalues --   -1.84265  -1.84253  -1.84219  -1.84209  -1.84148
 Alpha  occ. eigenvalues --   -1.84135  -1.84110  -1.84100  -1.84074  -1.84061
 Alpha  occ. eigenvalues --   -1.83959  -1.83920  -1.83887  -1.83880  -1.83861
 Alpha  occ. eigenvalues --   -1.83831  -1.83808  -1.83800  -1.83791  -1.83694
 Alpha  occ. eigenvalues --   -1.83685  -1.83678  -1.82163  -1.81817  -1.81809
 Alpha  occ. eigenvalues --   -1.50258  -1.50178  -1.50168  -1.08631  -1.07005
 Alpha  occ. eigenvalues --   -1.06965  -1.06924  -1.06012  -1.06005  -1.05974
 Alpha  occ. eigenvalues --   -1.04575  -1.04566  -1.04555  -1.03989  -1.03977
 Alpha  occ. eigenvalues --   -1.03763  -1.03385  -1.03359  -1.03337  -1.03023
 Alpha  occ. eigenvalues --   -1.02990  -1.02262  -1.02232  -1.02221  -1.02085
 Alpha  occ. eigenvalues --   -1.02003  -1.01972  -1.01905  -1.01883  -1.01770
 Alpha  occ. eigenvalues --   -1.01749  -1.01734  -1.01622  -1.01585  -1.01559
 Alpha  occ. eigenvalues --   -1.01289  -1.00831  -1.00743  -1.00682  -1.00678
 Alpha  occ. eigenvalues --   -1.00057  -1.00000  -0.99943  -0.96135  -0.89184
 Alpha  occ. eigenvalues --   -0.85697  -0.85620  -0.85617  -0.85549  -0.85531
 Alpha  occ. eigenvalues --   -0.85471  -0.85467  -0.85461  -0.85428  -0.84231
 Alpha  occ. eigenvalues --   -0.82418  -0.81197  -0.71881  -0.69585  -0.65030
 Alpha  occ. eigenvalues --   -0.62332  -0.61713  -0.61665  -0.61642  -0.60526
 Alpha  occ. eigenvalues --   -0.58970  -0.58949  -0.58930  -0.58874  -0.58812
 Alpha  occ. eigenvalues --   -0.58804  -0.58773  -0.58734  -0.58557  -0.57400
 Alpha  occ. eigenvalues --   -0.57363  -0.57345  -0.57047  -0.56691  -0.56514
 Alpha  occ. eigenvalues --   -0.56469  -0.56425  -0.56052  -0.55903  -0.55364
 Alpha  occ. eigenvalues --   -0.55350  -0.55316  -0.54431  -0.54155  -0.54135
 Alpha  occ. eigenvalues --   -0.53932  -0.53725  -0.53682  -0.53661  -0.52700
 Alpha  occ. eigenvalues --   -0.52619  -0.52601  -0.52493  -0.52456  -0.51480
 Alpha  occ. eigenvalues --   -0.51464  -0.51440  -0.51343  -0.51285  -0.50740
 Alpha  occ. eigenvalues --   -0.50551  -0.50535  -0.50476  -0.50383  -0.50304
 Alpha  occ. eigenvalues --   -0.50286  -0.50043  -0.49996  -0.49977  -0.49726
 Alpha  occ. eigenvalues --   -0.49626  -0.49583  -0.49492  -0.49464  -0.49293
 Alpha  occ. eigenvalues --   -0.49250  -0.49207  -0.49151  -0.49101  -0.49035
 Alpha  occ. eigenvalues --   -0.48685  -0.48520  -0.48502  -0.48443  -0.47644
 Alpha  occ. eigenvalues --   -0.47614  -0.47126  -0.46479  -0.46049  -0.46025
 Alpha  occ. eigenvalues --   -0.45894  -0.45778  -0.45751  -0.45612  -0.45217
 Alpha  occ. eigenvalues --   -0.45138  -0.45131  -0.44765  -0.44587  -0.44492
 Alpha  occ. eigenvalues --   -0.44479  -0.44449  -0.44304  -0.44205  -0.44165
 Alpha  occ. eigenvalues --   -0.43476  -0.43045  -0.42553  -0.42512  -0.42434
 Alpha  occ. eigenvalues --   -0.42342  -0.42191  -0.42172  -0.42139  -0.41634
 Alpha  occ. eigenvalues --   -0.41618  -0.41586  -0.41024  -0.40976  -0.40760
 Alpha  occ. eigenvalues --   -0.40755  -0.40722  -0.40351  -0.40337  -0.40304
 Alpha  occ. eigenvalues --   -0.40194  -0.40156  -0.40141  -0.40110  -0.39842
 Alpha  occ. eigenvalues --   -0.39363  -0.39265  -0.39251  -0.39127  -0.39077
 Alpha  occ. eigenvalues --   -0.38899  -0.38871  -0.38814  -0.38781  -0.38699
 Alpha  occ. eigenvalues --   -0.38298  -0.38260  -0.38213  -0.37960  -0.37209
 Alpha  occ. eigenvalues --   -0.37173  -0.34938  -0.34913  -0.33614  -0.30164
 Alpha  occ. eigenvalues --   -0.26031
 Alpha virt. eigenvalues --   -0.12380  -0.06414  -0.06349  -0.04918  -0.04876
 Alpha virt. eigenvalues --   -0.04743  -0.01538  -0.01422  -0.01371  -0.01171
 Alpha virt. eigenvalues --   -0.00941  -0.00932  -0.00901  -0.00164  -0.00104

  Beta  occ. eigenvalues -- -197.11161-129.99147-129.99063-129.99055-101.62851
  Beta  occ. eigenvalues --  -22.43556 -19.28543 -19.28505 -19.28455 -19.28395
  Beta  occ. eigenvalues --  -19.28380 -19.28357 -19.28348 -19.28345 -19.28335
  Beta  occ. eigenvalues --  -19.28279 -19.28250 -19.28152 -19.26949 -19.26904
  Beta  occ. eigenvalues --  -19.26897 -19.26868 -19.26864 -19.26829 -19.26818
  Beta  occ. eigenvalues --  -19.26818 -19.26815 -19.26806 -19.26792 -19.26783
  Beta  occ. eigenvalues --  -19.26764 -19.26762 -19.26756 -19.26755 -19.26750
  Beta  occ. eigenvalues --  -19.26750 -19.26728 -19.26725 -19.26718 -19.26696
  Beta  occ. eigenvalues --  -19.26648 -19.26589 -19.24825 -19.24808 -19.24762
  Beta  occ. eigenvalues --  -19.24749 -18.94053 -18.91834 -18.91823 -13.36560
  Beta  occ. eigenvalues --  -13.36474 -13.36460 -10.69487 -10.69483 -10.69481
  Beta  occ. eigenvalues --  -10.69401 -10.69397 -10.69396 -10.69388 -10.69384
  Beta  occ. eigenvalues --  -10.69378 -10.33197 -10.32242 -10.31896 -10.31080
  Beta  occ. eigenvalues --  -10.31075 -10.31040 -10.30488 -10.30419  -9.53307
  Beta  occ. eigenvalues --   -7.29182  -7.27697  -7.27693  -3.21128  -3.21080
  Beta  occ. eigenvalues --   -3.21067  -3.21044  -3.21037  -3.21015  -3.21015
  Beta  occ. eigenvalues --   -3.21005  -3.20997  -3.20890  -3.20869  -3.20841
  Beta  occ. eigenvalues --   -2.74956  -1.85346  -1.85288  -1.85277  -1.85247
  Beta  occ. eigenvalues --   -1.85134  -1.85069  -1.85056  -1.85039  -1.85020
  Beta  occ. eigenvalues --   -1.85010  -1.85000  -1.84938  -1.84388  -1.84280
  Beta  occ. eigenvalues --   -1.84262  -1.84250  -1.84216  -1.84206  -1.84145
  Beta  occ. eigenvalues --   -1.84133  -1.84106  -1.84097  -1.84071  -1.84058
  Beta  occ. eigenvalues --   -1.83956  -1.83917  -1.83884  -1.83877  -1.83858
  Beta  occ. eigenvalues --   -1.83828  -1.83805  -1.83798  -1.83788  -1.83692
  Beta  occ. eigenvalues --   -1.83682  -1.83676  -1.80821  -1.76064  -1.76039
  Beta  occ. eigenvalues --   -1.50258  -1.50178  -1.50168  -1.08613  -1.06986
  Beta  occ. eigenvalues --   -1.06941  -1.06896  -1.06010  -1.06003  -1.05973
  Beta  occ. eigenvalues --   -1.04577  -1.04566  -1.04554  -1.03991  -1.03977
  Beta  occ. eigenvalues --   -1.03697  -1.03355  -1.03318  -1.03299  -1.03023
  Beta  occ. eigenvalues --   -1.02982  -1.02244  -1.02208  -1.02204  -1.02076
  Beta  occ. eigenvalues --   -1.01998  -1.01959  -1.01900  -1.01869  -1.01766
  Beta  occ. eigenvalues --   -1.01746  -1.01731  -1.01619  -1.01583  -1.01543
  Beta  occ. eigenvalues --   -1.01289  -1.00792  -1.00742  -1.00682  -1.00678
  Beta  occ. eigenvalues --   -0.99922  -0.99874  -0.99827  -0.96349  -0.89817
  Beta  occ. eigenvalues --   -0.85697  -0.85620  -0.85617  -0.85549  -0.85531
  Beta  occ. eigenvalues --   -0.85471  -0.85467  -0.85460  -0.85428  -0.84839
  Beta  occ. eigenvalues --   -0.84325  -0.82695  -0.72126  -0.69701  -0.65262
  Beta  occ. eigenvalues --   -0.62332  -0.61712  -0.61665  -0.61642  -0.60722
  Beta  occ. eigenvalues --   -0.58966  -0.58947  -0.58929  -0.58802  -0.58789
  Beta  occ. eigenvalues --   -0.58766  -0.58746  -0.58677  -0.58558  -0.57363
  Beta  occ. eigenvalues --   -0.57217  -0.57176  -0.56998  -0.56861  -0.56518
  Beta  occ. eigenvalues --   -0.56436  -0.56389  -0.55859  -0.55645  -0.55345
  Beta  occ. eigenvalues --   -0.55333  -0.55316  -0.54621  -0.54147  -0.54127
  Beta  occ. eigenvalues --   -0.53922  -0.53684  -0.53655  -0.53621  -0.52747
  Beta  occ. eigenvalues --   -0.52644  -0.52589  -0.52473  -0.52450  -0.51454
  Beta  occ. eigenvalues --   -0.51438  -0.51433  -0.51280  -0.51212  -0.50915
  Beta  occ. eigenvalues --   -0.50527  -0.50473  -0.50449  -0.50325  -0.50251
  Beta  occ. eigenvalues --   -0.50164  -0.50012  -0.49994  -0.49945  -0.49673
  Beta  occ. eigenvalues --   -0.49602  -0.49548  -0.49482  -0.49453  -0.49292
  Beta  occ. eigenvalues --   -0.49228  -0.49204  -0.49124  -0.49087  -0.49015
  Beta  occ. eigenvalues --   -0.48680  -0.48517  -0.48501  -0.48435  -0.47772
  Beta  occ. eigenvalues --   -0.47576  -0.47552  -0.45963  -0.45906  -0.45861
  Beta  occ. eigenvalues --   -0.45825  -0.45672  -0.45565  -0.45217  -0.45161
  Beta  occ. eigenvalues --   -0.45135  -0.45047  -0.44764  -0.44585  -0.44477
  Beta  occ. eigenvalues --   -0.44426  -0.44416  -0.44285  -0.44184  -0.44151
  Beta  occ. eigenvalues --   -0.43471  -0.43150  -0.42492  -0.42461  -0.42397
  Beta  occ. eigenvalues --   -0.42269  -0.42222  -0.42151  -0.42135  -0.41618
  Beta  occ. eigenvalues --   -0.41596  -0.41563  -0.41325  -0.41031  -0.40930
  Beta  occ. eigenvalues --   -0.40748  -0.40692  -0.40649  -0.40335  -0.40329
  Beta  occ. eigenvalues --   -0.40287  -0.40144  -0.40129  -0.40118  -0.39785
  Beta  occ. eigenvalues --   -0.39619  -0.39361  -0.39169  -0.39105  -0.39088
  Beta  occ. eigenvalues --   -0.38896  -0.38843  -0.38824  -0.38774  -0.38722
  Beta  occ. eigenvalues --   -0.38667  -0.38297  -0.38257  -0.38210  -0.37914
  Beta  occ. eigenvalues --   -0.37211  -0.37167  -0.35903  -0.35874  -0.33878
  Beta  occ. eigenvalues --   -0.30894
  Beta virt. eigenvalues --   -0.06413  -0.06349  -0.04917  -0.04875  -0.04743
  Beta virt. eigenvalues --   -0.01534  -0.01417  -0.01366  -0.01165  -0.00936
  Beta virt. eigenvalues --   -0.00927  -0.00896  -0.00153  -0.00091  -0.00055

 Mulliken charges and spin densities:
               1          2
     1  Cl  -0.338501  -0.624953
     2  C   -0.035451  -0.090108
     3  C    0.013489   0.051755
     4  C   -0.034994  -0.086192
     5  C   -0.031584   0.055108
     6  C    0.006611  -0.109659
     7  C   -0.048486   0.055154
     8  H    0.050553   0.003968
     9  H    0.050773   0.003704
    10  H    0.055670  -0.001951
    11  H    0.056474   0.004818
    12  H    0.054346  -0.001939
    13  C    0.002281  -0.238404
    14  C   -0.046055  -0.031530
    15  H    0.075437   0.009982
    16  H    0.095257   0.002250
    17  H    0.086627  -0.000122
    18  O   -0.673017  -0.000572
    19  O   -0.672471  -0.000529
    20  O   -0.666771  -0.001653
    21  O   -0.673098  -0.000543
    22  W    1.721023   0.000359
    23  W    1.663691   0.000480
    24  W    1.674462   0.000171
    25  W    1.683856   0.000200
    26  W    1.664542   0.002683
    27  W    1.713122   0.002405
    28  W    1.614178   0.003332
    29  W    1.674596   0.002806
    30  O   -0.350027  -0.000539
    31  O   -0.393983  -0.000565
    32  O   -0.395618  -0.000608
    33  O   -0.389689  -0.000563
    34  O   -0.674588  -0.000293
    35  O   -0.679264  -0.000046
    36  O   -0.671493  -0.000147
    37  O   -0.674241  -0.000224
    38  O   -0.398224   0.002064
    39  O   -0.395577   0.002093
    40  O   -0.339790   0.000077
    41  O   -0.395265   0.002059
    42  O   -0.678727   0.000036
    43  O   -0.672993   0.000127
    44  O   -0.670854   0.000252
    45  O   -0.674918   0.000077
    46  O   -0.399390   0.002273
    47  O   -0.352505   0.002189
    48  O   -0.394886   0.001838
    49  O   -0.392621   0.002358
    50  W    1.662884   0.002703
    51  W    1.667456   0.002597
    52  W    1.679040   0.003744
    53  W    1.673468   0.002537
    54  O   -0.723422   0.000105
    55  O   -0.707899   0.000019
    56  O   -0.723357   0.000165
    57  O   -0.721984   0.000063
    58  O   -0.705935   0.000048
    59  O   -0.725338   0.000143
    60  O   -0.723184   0.000195
    61  O   -0.719650   0.000185
    62  O   -0.724236  -0.000186
    63  O   -0.708411  -0.000057
    64  O   -0.723550  -0.000213
    65  O   -0.725238  -0.000220
    66  O   -0.885815   0.005039
    67  O   -0.885802   0.007145
    68  O   -0.881934   0.006817
    69  O   -0.889400   0.006345
    70  K    0.849995   0.000187
    71  K    0.851229   0.000206
    72  K    0.847183   0.000214
    73  V    1.201993   0.938740
 Sum of Mulliken charges =  -1.00000  -0.00000

 Dipole moment (field-independent basis, Debye):
    X=             28.4771    Y=            -13.6092    Z=            -30.5068  Tot=             43.8955
 Quadrupole moment (field-independent basis, Debye-Ang):
   XX=           -763.8896   YY=           -709.1627   ZZ=           -777.3293
   XY=            127.8778   XZ=            177.4575   YZ=            -92.3547

 Normal termination of Gaussian 16 at Sun Jun  2 12:58:22 2024.
