 Gaussian 16, Revision C.01,
 Gaussian 16:  ES64L-G16RevC.01  3-Jul-2019

 ----------------------------------------------------------------------
 # def2svp wb97xd scrf=(smd,solvent=acetonitrile) g09default scf=(xqc,m
 axcycle=64) force guess=read nosymm
 ----------------------------------------------------------------------

 ----------
 Title Card
 ----------
 Symbolic Z-matrix:
 Charge = -1 Multiplicity = 1

                          Input orientation:
 ---------------------------------------------------------------------
 Center     Atomic      Atomic             Coordinates (Angstroms)
 Number     Number       Type             X           Y           Z
 ---------------------------------------------------------------------
      1         17           0       -9.702904    8.279155   10.556454
      2          6           0       -8.336998    4.241399   12.218339
      3          6           0       -9.133183    3.929132   11.100433
      4          6           0      -10.042872    2.860350   11.213396
      5          6           0      -10.203230    2.177318   12.414364
      6          6           0       -9.444426    2.535839   13.529372
      7          6           0       -8.494175    3.553385   13.418131
      8          1           0       -7.579083    5.024742   12.148014
      9          1           0      -10.633230    2.568527   10.340175
     10          1           0      -10.920437    1.355528   12.481265
     11          1           0       -9.580330    2.012329   14.478380
     12          1           0       -7.869794    3.812115   14.276815
     13          6           0       -9.061576    4.669239    9.838943
     14          6           0       -8.375118    5.808130    9.606128
     15          1           0       -9.645115    4.238685    9.017448
     16          1           0       -8.363569    6.244957    8.605440
     17          1           0       -7.748049    6.291768   10.355562
     18          8           0       -0.977369   -1.795473    7.467033
     19          8           0       -8.397537   -1.334041    7.461034
     20          8           0       -7.025759    1.348482   10.472200
     21          8           0       -2.334083   -4.393098   10.554122
     22         74           0       -3.406153    0.688941    6.473516
     23         74           0       -5.991110   -3.817816    6.559362
     24         74           0       -3.614087    0.871864   11.421407
     25         74           0       -5.762625   -3.860502   11.480897
     26         74           0       -2.430987   -2.592154    6.402870
     27         74           0       -6.942823   -0.532722    6.373017
     28         74           0       -6.821764   -0.248108   11.559619
     29         74           0       -2.542812   -2.732155   11.602015
     30          8           0       -3.170241    1.870979    5.291823
     31          8           0       -6.124565   -5.069236    5.418184
     32          8           0       -2.689154    1.715569   12.571520
     33          8           0       -6.680220   -4.660583   12.665097
     34          8           0       -2.657122   -0.915237    5.586651
     35          8           0       -6.703602   -2.267101    5.621587
     36          8           0       -5.312592    0.551795   12.360575
     37          8           0       -4.049852   -3.528126   12.404915
     38          8           0        0.306891   -0.009965    9.283223
     39          8           0       -9.695032   -3.041467    9.329376
     40          8           0       -6.345107    3.430788    8.665627
     41          8           0       -3.008115   -6.490651    8.746056
     42          8           0       -1.783983    0.751534    7.473871
     43          8           0       -7.598591   -3.883951    7.542831
     44          8           0       -4.494855    2.198233   10.428483
     45          8           0       -4.874352   -5.229255   10.527428
     46          8           0       -1.601076   -3.540680    5.260269
     47          8           0       -7.823435    0.279208    5.183037
     48          8           0       -8.047837   -0.168558   12.733193
     49          8           0       -1.302424   -2.854964   12.756766
     50         74           0       -1.249976   -0.527654    8.836785
     51         74           0       -8.136312   -2.538902    8.874474
     52         74           0       -5.869600    1.858518    9.044515
     53         74           0       -3.493821   -4.916303    9.164805
     54          8           0       -4.211787   -3.110446    6.070625
     55          8           0       -5.154105   -0.060528    6.013606
     56          8           0       -6.171139   -1.996584   11.907325
     57          8           0       -3.170008   -0.984680   11.927893
     58          8           0       -4.355185    1.580843    7.830275
     59          8           0       -5.005721   -4.680157    7.921833
     60          8           0       -2.325641    0.569537   10.080556
     61          8           0       -7.048741   -3.614382   10.131131
     62          8           0       -2.568236   -3.908147    7.867329
     63          8           0       -6.810287    0.794342    7.803031
     64          8           0       -7.827048   -1.176598   10.138267
     65          8           0       -1.560786   -1.866672   10.138746
     66          8           0       -3.356469   -1.157192    8.006821
     67          8           0       -6.022248   -1.957420    8.033722
     68          8           0       -5.117026   -0.206558    9.943985
     69          8           0       -4.235608   -2.845302    9.974112
     70         19           0       -3.212117   -6.135365    5.645131
     71         19           0       -0.107610    0.054723   12.342027
     72         19           0       -9.287831   -2.839767   12.434770
     73         23           0       -4.685017   -1.537864    8.987852
 ---------------------------------------------------------------------

 SCF Done:  E(RwB97XD) =  -7327.70163691     A.U. after   10 cycles

 Alpha  occ. eigenvalues -- -197.29636-130.00116-130.00081-129.99984-101.48170
 Alpha  occ. eigenvalues --  -22.62740 -19.33706 -19.33701 -19.33694 -19.33675
 Alpha  occ. eigenvalues --  -19.30726 -19.30682 -19.30680 -19.30676 -19.30672
 Alpha  occ. eigenvalues --  -19.30669 -19.30656 -19.30626 -19.30541 -19.30381
 Alpha  occ. eigenvalues --  -19.30345 -19.30174 -19.29321 -19.29305 -19.29304
 Alpha  occ. eigenvalues --  -19.29288 -19.29271 -19.29255 -19.29222 -19.29195
 Alpha  occ. eigenvalues --  -19.29177 -19.29170 -19.29160 -19.29149 -19.29129
 Alpha  occ. eigenvalues --  -19.29098 -19.29091 -19.29068 -19.29067 -19.29059
 Alpha  occ. eigenvalues --  -19.29050 -19.28992 -19.28975 -19.28965 -19.28915
 Alpha  occ. eigenvalues --  -19.28846 -19.11699 -19.11691 -19.11682 -13.37523
 Alpha  occ. eigenvalues --  -13.37486 -13.37383 -10.70452 -10.70445 -10.70443
 Alpha  occ. eigenvalues --  -10.70415 -10.70408 -10.70407 -10.70313 -10.70307
 Alpha  occ. eigenvalues --  -10.70301 -10.29902 -10.29357 -10.29303 -10.29096
 Alpha  occ. eigenvalues --  -10.29016 -10.29011 -10.28188 -10.27688  -9.38635
 Alpha  occ. eigenvalues --   -7.13461  -7.13416  -7.13408  -3.23318  -3.23316
 Alpha  occ. eigenvalues --   -3.23307  -3.23295  -3.23295  -3.23280  -3.23269
 Alpha  occ. eigenvalues --   -3.23255  -3.23222  -3.22987  -3.22983  -3.22792
 Alpha  occ. eigenvalues --   -2.91931  -1.94297  -1.94263  -1.94254  -1.87721
 Alpha  occ. eigenvalues --   -1.87672  -1.87658  -1.87626  -1.87487  -1.87473
 Alpha  occ. eigenvalues --   -1.87466  -1.87451  -1.87421  -1.87288  -1.87255
 Alpha  occ. eigenvalues --   -1.87098  -1.86626  -1.86508  -1.86500  -1.86482
 Alpha  occ. eigenvalues --   -1.86458  -1.86436  -1.86344  -1.86334  -1.86315
 Alpha  occ. eigenvalues --   -1.86297  -1.86292  -1.86260  -1.86147  -1.86135
 Alpha  occ. eigenvalues --   -1.86126  -1.86115  -1.86047  -1.86028  -1.85992
 Alpha  occ. eigenvalues --   -1.85929  -1.85911  -1.85812  -1.85719  -1.85671
 Alpha  occ. eigenvalues --   -1.51207  -1.51175  -1.51079  -1.13098  -1.11333
 Alpha  occ. eigenvalues --   -1.11256  -1.11248  -1.08976  -1.08535  -1.08492
 Alpha  occ. eigenvalues --   -1.08304  -1.07572  -1.07520  -1.07506  -1.06899
 Alpha  occ. eigenvalues --   -1.06881  -1.06866  -1.06323  -1.06308  -1.05306
 Alpha  occ. eigenvalues --   -1.05295  -1.04974  -1.04968  -1.04962  -1.04186
 Alpha  occ. eigenvalues --   -1.04178  -1.04166  -1.04021  -1.04002  -1.03990
 Alpha  occ. eigenvalues --   -1.03935  -1.03905  -1.03889  -1.03758  -1.03726
 Alpha  occ. eigenvalues --   -1.03611  -1.03546  -1.03306  -1.03260  -1.03108
 Alpha  occ. eigenvalues --   -1.03094  -1.03019  -1.02954  -0.94393  -0.86672
 Alpha  occ. eigenvalues --   -0.86643  -0.86553  -0.86525  -0.86484  -0.86468
 Alpha  occ. eigenvalues --   -0.86451  -0.86447  -0.86366  -0.86329  -0.82826
 Alpha  occ. eigenvalues --   -0.79809  -0.71373  -0.69724  -0.68045  -0.64610
 Alpha  occ. eigenvalues --   -0.63979  -0.63915  -0.63907  -0.63345  -0.63324
 Alpha  occ. eigenvalues --   -0.63191  -0.63000  -0.62707  -0.62612  -0.62032
 Alpha  occ. eigenvalues --   -0.61630  -0.61620  -0.61524  -0.61250  -0.61236
 Alpha  occ. eigenvalues --   -0.61170  -0.60407  -0.59491  -0.59477  -0.59459
 Alpha  occ. eigenvalues --   -0.59425  -0.59377  -0.58607  -0.57994  -0.57969
 Alpha  occ. eigenvalues --   -0.57876  -0.57092  -0.57049  -0.57019  -0.56302
 Alpha  occ. eigenvalues --   -0.56278  -0.56115  -0.55698  -0.54860  -0.54801
 Alpha  occ. eigenvalues --   -0.54768  -0.54552  -0.54238  -0.54108  -0.54085
 Alpha  occ. eigenvalues --   -0.54015  -0.53956  -0.53227  -0.53189  -0.53058
 Alpha  occ. eigenvalues --   -0.53023  -0.52900  -0.52693  -0.52654  -0.52631
 Alpha  occ. eigenvalues --   -0.52574  -0.52528  -0.52465  -0.52459  -0.51600
 Alpha  occ. eigenvalues --   -0.51573  -0.51341  -0.51314  -0.51275  -0.51233
 Alpha  occ. eigenvalues --   -0.51178  -0.51169  -0.50960  -0.50751  -0.50572
 Alpha  occ. eigenvalues --   -0.50552  -0.50546  -0.49871  -0.49849  -0.49301
 Alpha  occ. eigenvalues --   -0.49289  -0.49256  -0.49218  -0.49160  -0.49066
 Alpha  occ. eigenvalues --   -0.48900  -0.48085  -0.48032  -0.47933  -0.47735
 Alpha  occ. eigenvalues --   -0.47383  -0.47284  -0.47241  -0.47000  -0.46923
 Alpha  occ. eigenvalues --   -0.46815  -0.46556  -0.46484  -0.46466  -0.46204
 Alpha  occ. eigenvalues --   -0.46150  -0.46111  -0.45611  -0.45094  -0.44916
 Alpha  occ. eigenvalues --   -0.44875  -0.44206  -0.44149  -0.44038  -0.43554
 Alpha  occ. eigenvalues --   -0.43272  -0.43221  -0.43110  -0.43093  -0.43057
 Alpha  occ. eigenvalues --   -0.42697  -0.42672  -0.42651  -0.42586  -0.42578
 Alpha  occ. eigenvalues --   -0.42495  -0.42453  -0.42436  -0.42276  -0.42260
 Alpha  occ. eigenvalues --   -0.42240  -0.42017  -0.41905  -0.41846  -0.41826
 Alpha  occ. eigenvalues --   -0.41199  -0.41148  -0.41136  -0.41008  -0.40542
 Alpha  occ. eigenvalues --   -0.40511  -0.40493  -0.40406  -0.39442  -0.39425
 Alpha  occ. eigenvalues --   -0.36986  -0.32551  -0.29099  -0.24968  -0.24947
 Alpha  occ. eigenvalues --   -0.23590
 Alpha virt. eigenvalues --   -0.09617  -0.09382  -0.08546  -0.08479  -0.07076
 Alpha virt. eigenvalues --   -0.07046  -0.06928  -0.04625  -0.04263  -0.04218
 Alpha virt. eigenvalues --   -0.03734  -0.03526  -0.03473  -0.03267  -0.03163

 Mulliken charges:
               1
     1  Cl  -0.905710
     2  C   -0.078259
     3  C    0.047125
     4  C   -0.077406
     5  C   -0.033892
     6  C   -0.033217
     7  C   -0.050186
     8  H    0.030880
     9  H    0.030241
    10  H    0.041507
    11  H    0.037282
    12  H    0.040276
    13  C   -0.120050
    14  C    0.019663
    15  H    0.022583
    16  H    0.039960
    17  H    0.025840
    18  O   -0.664041
    19  O   -0.663746
    20  O   -0.655413
    21  O   -0.664132
    22  W    1.737337
    23  W    1.678051
    24  W    1.687450
    25  W    1.698025
    26  W    1.678164
    27  W    1.730633
    28  W    1.622477
    29  W    1.689151
    30  O   -0.319958
    31  O   -0.365554
    32  O   -0.367500
    33  O   -0.360790
    34  O   -0.666166
    35  O   -0.671795
    36  O   -0.662275
    37  O   -0.665356
    38  O   -0.368413
    39  O   -0.365104
    40  O   -0.297252
    41  O   -0.365257
    42  O   -0.670953
    43  O   -0.664344
    44  O   -0.662295
    45  O   -0.666419
    46  O   -0.369631
    47  O   -0.320485
    48  O   -0.362306
    49  O   -0.362317
    50  W    1.677008
    51  W    1.681948
    52  W    1.686114
    53  W    1.688162
    54  O   -0.725570
    55  O   -0.709607
    56  O   -0.726738
    57  O   -0.723834
    58  O   -0.707936
    59  O   -0.728205
    60  O   -0.725767
    61  O   -0.722013
    62  O   -0.725726
    63  O   -0.709427
    64  O   -0.724675
    65  O   -0.727352
    66  O   -0.803179
    67  O   -0.802273
    68  O   -0.798611
    69  O   -0.809205
    70  K    0.863422
    71  K    0.864222
    72  K    0.860675
    73  V    1.192144
 Sum of Mulliken charges =  -1.00000

 Dipole moment (field-independent basis, Debye):
    X=             50.6873    Y=            -51.5231    Z=            -38.6559  Tot=             81.9640
 Quadrupole moment (field-independent basis, Debye-Ang):
   XX=          -1047.6228   YY=           -892.5196   ZZ=           -912.9790
   XY=            453.0304   XZ=            454.0424   YZ=           -481.6151

 Normal termination of Gaussian 16 at Sun Jun  2 13:43:36 2024.
