 Gaussian 16, Revision C.01,
 Gaussian 16:  ES64L-G16RevC.01  3-Jul-2019

 ----------------------------------------------------------------------
 # def2svp wb97xd scrf=(smd,solvent=acetonitrile) g09default scf=(xqc,m
 axcycle=64) force guess=read nosymm
 ----------------------------------------------------------------------

 ----------
 Title Card
 ----------
 Symbolic Z-matrix:
 Charge = -1 Multiplicity = 1

                          Input orientation:
 ---------------------------------------------------------------------
 Center     Atomic      Atomic             Coordinates (Angstroms)
 Number     Number       Type             X           Y           Z
 ---------------------------------------------------------------------
      1         17           0       -9.702904    8.279155   10.556454
      2          6           0       -8.336998    4.241399   12.218339
      3          6           0       -9.133183    3.929132   11.100433
      4          6           0      -10.042872    2.860350   11.213396
      5          6           0      -10.203230    2.177318   12.414364
      6          6           0       -9.444426    2.535839   13.529372
      7          6           0       -8.494175    3.553385   13.418131
      8          1           0       -7.579083    5.024742   12.148014
      9          1           0      -10.633230    2.568527   10.340175
     10          1           0      -10.920437    1.355528   12.481265
     11          1           0       -9.580330    2.012329   14.478380
     12          1           0       -7.869794    3.812115   14.276815
     13          6           0       -9.061576    4.669239    9.838943
     14          6           0       -8.375118    5.808130    9.606128
     15          1           0       -9.645115    4.238685    9.017448
     16          1           0       -8.363569    6.244957    8.605440
     17          1           0       -7.748049    6.291768   10.355562
     18          8           0       -0.977369   -1.795473    7.467033
     19          8           0       -8.397537   -1.334041    7.461034
     20          8           0       -7.025759    1.348482   10.472200
     21          8           0       -2.334083   -4.393098   10.554122
     22         74           0       -3.406153    0.688941    6.473516
     23         74           0       -5.991110   -3.817816    6.559362
     24         74           0       -3.614087    0.871864   11.421407
     25         74           0       -5.762625   -3.860502   11.480897
     26         74           0       -2.430987   -2.592154    6.402870
     27         74           0       -6.942823   -0.532722    6.373017
     28         74           0       -6.821764   -0.248108   11.559619
     29         74           0       -2.542812   -2.732155   11.602015
     30          8           0       -3.170241    1.870979    5.291823
     31          8           0       -6.124565   -5.069236    5.418184
     32          8           0       -2.689154    1.715569   12.571520
     33          8           0       -6.680220   -4.660583   12.665097
     34          8           0       -2.657122   -0.915237    5.586651
     35          8           0       -6.703602   -2.267101    5.621587
     36          8           0       -5.312592    0.551795   12.360575
     37          8           0       -4.049852   -3.528126   12.404915
     38          8           0        0.306891   -0.009965    9.283223
     39          8           0       -9.695032   -3.041467    9.329376
     40          8           0       -6.345107    3.430788    8.665627
     41          8           0       -3.008115   -6.490651    8.746056
     42          8           0       -1.783983    0.751534    7.473871
     43          8           0       -7.598591   -3.883951    7.542831
     44          8           0       -4.494855    2.198233   10.428483
     45          8           0       -4.874352   -5.229255   10.527428
     46          8           0       -1.601076   -3.540680    5.260269
     47          8           0       -7.823435    0.279208    5.183037
     48          8           0       -8.047837   -0.168558   12.733193
     49          8           0       -1.302424   -2.854964   12.756766
     50         74           0       -1.249976   -0.527654    8.836785
     51         74           0       -8.136312   -2.538902    8.874474
     52         74           0       -5.869600    1.858518    9.044515
     53         74           0       -3.493821   -4.916303    9.164805
     54          8           0       -4.211787   -3.110446    6.070625
     55          8           0       -5.154105   -0.060528    6.013606
     56          8           0       -6.171139   -1.996584   11.907325
     57          8           0       -3.170008   -0.984680   11.927893
     58          8           0       -4.355185    1.580843    7.830275
     59          8           0       -5.005721   -4.680157    7.921833
     60          8           0       -2.325641    0.569537   10.080556
     61          8           0       -7.048741   -3.614382   10.131131
     62          8           0       -2.568236   -3.908147    7.867329
     63          8           0       -6.810287    0.794342    7.803031
     64          8           0       -7.827048   -1.176598   10.138267
     65          8           0       -1.560786   -1.866672   10.138746
     66          8           0       -3.356469   -1.157192    8.006821
     67          8           0       -6.022248   -1.957420    8.033722
     68          8           0       -5.117026   -0.206558    9.943985
     69          8           0       -4.235608   -2.845302    9.974112
     70         19           0       -3.212117   -6.135365    5.645131
     71         19           0       -0.107610    0.054723   12.342027
     72         19           0       -9.287831   -2.839767   12.434770
     73         23           0       -4.685017   -1.537864    8.987852
 ---------------------------------------------------------------------

 SCF Done:  E(UwB97XD) =  -7327.70164422     A.U. after   34 cycles

 Alpha  occ. eigenvalues --  -19.24756 -18.94375 -18.93272 -18.93266 -13.36553
 Alpha  occ. eigenvalues --  -13.36468 -13.36453 -10.69480 -10.69476 -10.69474
 Alpha  occ. eigenvalues --  -10.69395 -10.69391 -10.69390 -10.69381 -10.69377
 Alpha  occ. eigenvalues --  -10.69371 -10.32956 -10.32130 -10.31950 -10.30992
 Alpha  occ. eigenvalues --  -10.30965 -10.30951 -10.30551 -10.30478  -9.52822
 Alpha  occ. eigenvalues --   -7.27710  -7.27357  -7.27353  -3.21133  -3.21091
 Alpha  occ. eigenvalues --   -3.21066  -3.21045  -3.21044  -3.21022  -3.21021
 Alpha  occ. eigenvalues --   -3.21011  -3.21004  -3.20891  -3.20877  -3.20846
 Alpha  occ. eigenvalues --   -2.79008  -1.85352  -1.85294  -1.85283  -1.85257
 Alpha  occ. eigenvalues --   -1.85141  -1.85077  -1.85064  -1.85045  -1.85029
 Alpha  occ. eigenvalues --   -1.85019  -1.85006  -1.84951  -1.84393  -1.84284
 Alpha  occ. eigenvalues --   -1.84267  -1.84253  -1.84220  -1.84210  -1.84151
 Alpha  occ. eigenvalues --   -1.84136  -1.84111  -1.84100  -1.84074  -1.84061
 Alpha  occ. eigenvalues --   -1.83963  -1.83921  -1.83887  -1.83880  -1.83863
 Alpha  occ. eigenvalues --   -1.83832  -1.83810  -1.83801  -1.83792  -1.83697
 Alpha  occ. eigenvalues --   -1.83686  -1.83679  -1.82148  -1.81801  -1.81794
 Alpha  occ. eigenvalues --   -1.50252  -1.50172  -1.50162  -1.08631  -1.07006
 Alpha  occ. eigenvalues --   -1.06964  -1.06923  -1.06012  -1.06007  -1.05975
 Alpha  occ. eigenvalues --   -1.04575  -1.04568  -1.04555  -1.03990  -1.03978
 Alpha  occ. eigenvalues --   -1.03759  -1.03385  -1.03358  -1.03336  -1.03024
 Alpha  occ. eigenvalues --   -1.02990  -1.02262  -1.02231  -1.02221  -1.02086
 Alpha  occ. eigenvalues --   -1.02006  -1.01973  -1.01906  -1.01885  -1.01770
 Alpha  occ. eigenvalues --   -1.01751  -1.01735  -1.01620  -1.01586  -1.01564
 Alpha  occ. eigenvalues --   -1.01290  -1.00831  -1.00744  -1.00682  -1.00677
 Alpha  occ. eigenvalues --   -1.00052  -0.99998  -0.99937  -0.96142  -0.89194
 Alpha  occ. eigenvalues --   -0.85692  -0.85615  -0.85611  -0.85542  -0.85524
 Alpha  occ. eigenvalues --   -0.85466  -0.85462  -0.85455  -0.85422  -0.84236
 Alpha  occ. eigenvalues --   -0.82431  -0.81183  -0.71889  -0.69591  -0.65037
 Alpha  occ. eigenvalues --   -0.62334  -0.61716  -0.61665  -0.61641  -0.60530
 Alpha  occ. eigenvalues --   -0.58972  -0.58950  -0.58930  -0.58875  -0.58813
 Alpha  occ. eigenvalues --   -0.58805  -0.58774  -0.58736  -0.58557  -0.57399
 Alpha  occ. eigenvalues --   -0.57361  -0.57344  -0.57044  -0.56700  -0.56514
 Alpha  occ. eigenvalues --   -0.56468  -0.56424  -0.56050  -0.55902  -0.55363
 Alpha  occ. eigenvalues --   -0.55350  -0.55315  -0.54436  -0.54153  -0.54135
 Alpha  occ. eigenvalues --   -0.53933  -0.53725  -0.53682  -0.53662  -0.52703
 Alpha  occ. eigenvalues --   -0.52624  -0.52602  -0.52495  -0.52458  -0.51481
 Alpha  occ. eigenvalues --   -0.51465  -0.51440  -0.51345  -0.51288  -0.50747
 Alpha  occ. eigenvalues --   -0.50553  -0.50534  -0.50478  -0.50386  -0.50308
 Alpha  occ. eigenvalues --   -0.50289  -0.50044  -0.49999  -0.49977  -0.49728
 Alpha  occ. eigenvalues --   -0.49629  -0.49585  -0.49493  -0.49467  -0.49292
 Alpha  occ. eigenvalues --   -0.49247  -0.49207  -0.49152  -0.49101  -0.49037
 Alpha  occ. eigenvalues --   -0.48689  -0.48523  -0.48504  -0.48450  -0.47644
 Alpha  occ. eigenvalues --   -0.47614  -0.47127  -0.46479  -0.46049  -0.46027
 Alpha  occ. eigenvalues --   -0.45895  -0.45788  -0.45753  -0.45613  -0.45218
 Alpha  occ. eigenvalues --   -0.45138  -0.45133  -0.44764  -0.44585  -0.44492
 Alpha  occ. eigenvalues --   -0.44478  -0.44448  -0.44303  -0.44205  -0.44165
 Alpha  occ. eigenvalues --   -0.43475  -0.43049  -0.42551  -0.42513  -0.42432
 Alpha  occ. eigenvalues --   -0.42341  -0.42191  -0.42171  -0.42149  -0.41634
 Alpha  occ. eigenvalues --   -0.41617  -0.41588  -0.41025  -0.40977  -0.40758
 Alpha  occ. eigenvalues --   -0.40757  -0.40721  -0.40350  -0.40335  -0.40304
 Alpha  occ. eigenvalues --   -0.40194  -0.40156  -0.40142  -0.40110  -0.39843
 Alpha  occ. eigenvalues --   -0.39364  -0.39264  -0.39247  -0.39125  -0.39074
 Alpha  occ. eigenvalues --   -0.38898  -0.38868  -0.38812  -0.38779  -0.38697
 Alpha  occ. eigenvalues --   -0.38298  -0.38259  -0.38212  -0.37968  -0.37210
 Alpha  occ. eigenvalues --   -0.37172  -0.34923  -0.34896  -0.33618  -0.30196
 Alpha  occ. eigenvalues --   -0.26012
 Alpha virt. eigenvalues --   -0.12349  -0.06419  -0.06353  -0.04920  -0.04879
 Alpha virt. eigenvalues --   -0.04749  -0.01536  -0.01422  -0.01374  -0.01173
 Alpha virt. eigenvalues --   -0.00940  -0.00928  -0.00902  -0.00165  -0.00105

  Beta  occ. eigenvalues -- -197.11135-129.99140-129.99057-129.99048-101.62823
  Beta  occ. eigenvalues --  -22.43533 -19.28542 -19.28506 -19.28456 -19.28395
  Beta  occ. eigenvalues --  -19.28384 -19.28366 -19.28351 -19.28346 -19.28333
  Beta  occ. eigenvalues --  -19.28282 -19.28247 -19.28158 -19.26949 -19.26908
  Beta  occ. eigenvalues --  -19.26903 -19.26865 -19.26862 -19.26827 -19.26822
  Beta  occ. eigenvalues --  -19.26815 -19.26813 -19.26810 -19.26789 -19.26787
  Beta  occ. eigenvalues --  -19.26762 -19.26761 -19.26759 -19.26753 -19.26752
  Beta  occ. eigenvalues --  -19.26751 -19.26728 -19.26725 -19.26716 -19.26696
  Beta  occ. eigenvalues --  -19.26648 -19.26588 -19.24813 -19.24797 -19.24760
  Beta  occ. eigenvalues --  -19.24731 -18.94029 -18.91808 -18.91802 -13.36553
  Beta  occ. eigenvalues --  -13.36468 -13.36453 -10.69480 -10.69476 -10.69474
  Beta  occ. eigenvalues --  -10.69395 -10.69391 -10.69390 -10.69381 -10.69377
  Beta  occ. eigenvalues --  -10.69371 -10.33215 -10.32252 -10.31904 -10.31091
  Beta  occ. eigenvalues --  -10.31082 -10.31046 -10.30495 -10.30422  -9.53280
  Beta  occ. eigenvalues --   -7.29151  -7.27671  -7.27667  -3.21132  -3.21085
  Beta  occ. eigenvalues --   -3.21065  -3.21044  -3.21039  -3.21016  -3.21015
  Beta  occ. eigenvalues --   -3.21006  -3.20998  -3.20890  -3.20873  -3.20841
  Beta  occ. eigenvalues --   -2.74939  -1.85347  -1.85289  -1.85279  -1.85248
  Beta  occ. eigenvalues --   -1.85135  -1.85072  -1.85059  -1.85040  -1.85020
  Beta  occ. eigenvalues --   -1.85010  -1.85000  -1.84943  -1.84390  -1.84282
  Beta  occ. eigenvalues --   -1.84264  -1.84250  -1.84217  -1.84207  -1.84148
  Beta  occ. eigenvalues --   -1.84134  -1.84107  -1.84097  -1.84071  -1.84058
  Beta  occ. eigenvalues --   -1.83960  -1.83918  -1.83884  -1.83877  -1.83860
  Beta  occ. eigenvalues --   -1.83829  -1.83808  -1.83798  -1.83789  -1.83694
  Beta  occ. eigenvalues --   -1.83683  -1.83677  -1.80806  -1.76042  -1.76030
  Beta  occ. eigenvalues --   -1.50252  -1.50172  -1.50162  -1.08613  -1.06987
  Beta  occ. eigenvalues --   -1.06940  -1.06895  -1.06010  -1.06004  -1.05974
  Beta  occ. eigenvalues --   -1.04577  -1.04568  -1.04555  -1.03992  -1.03977
  Beta  occ. eigenvalues --   -1.03692  -1.03355  -1.03317  -1.03299  -1.03024
  Beta  occ. eigenvalues --   -1.02983  -1.02244  -1.02206  -1.02205  -1.02077
  Beta  occ. eigenvalues --   -1.02001  -1.01961  -1.01902  -1.01871  -1.01766
  Beta  occ. eigenvalues --   -1.01748  -1.01732  -1.01617  -1.01584  -1.01548
  Beta  occ. eigenvalues --   -1.01290  -1.00792  -1.00744  -1.00682  -1.00677
  Beta  occ. eigenvalues --   -0.99917  -0.99870  -0.99821  -0.96358  -0.89830
  Beta  occ. eigenvalues --   -0.85692  -0.85615  -0.85611  -0.85542  -0.85524
  Beta  occ. eigenvalues --   -0.85466  -0.85462  -0.85455  -0.85422  -0.84825
  Beta  occ. eigenvalues --   -0.84329  -0.82698  -0.72136  -0.69708  -0.65271
  Beta  occ. eigenvalues --   -0.62333  -0.61716  -0.61665  -0.61641  -0.60729
  Beta  occ. eigenvalues --   -0.58968  -0.58949  -0.58929  -0.58803  -0.58790
  Beta  occ. eigenvalues --   -0.58768  -0.58747  -0.58678  -0.58558  -0.57362
  Beta  occ. eigenvalues --   -0.57216  -0.57175  -0.56998  -0.56870  -0.56518
  Beta  occ. eigenvalues --   -0.56435  -0.56388  -0.55858  -0.55644  -0.55344
  Beta  occ. eigenvalues --   -0.55333  -0.55315  -0.54630  -0.54146  -0.54127
  Beta  occ. eigenvalues --   -0.53923  -0.53685  -0.53654  -0.53622  -0.52753
  Beta  occ. eigenvalues --   -0.52647  -0.52591  -0.52475  -0.52453  -0.51455
  Beta  occ. eigenvalues --   -0.51439  -0.51432  -0.51283  -0.51214  -0.50925
  Beta  occ. eigenvalues --   -0.50532  -0.50472  -0.50452  -0.50327  -0.50253
  Beta  occ. eigenvalues --   -0.50165  -0.50014  -0.49997  -0.49944  -0.49674
  Beta  occ. eigenvalues --   -0.49605  -0.49549  -0.49483  -0.49456  -0.49291
  Beta  occ. eigenvalues --   -0.49225  -0.49204  -0.49126  -0.49087  -0.49017
  Beta  occ. eigenvalues --   -0.48684  -0.48520  -0.48503  -0.48443  -0.47775
  Beta  occ. eigenvalues --   -0.47576  -0.47553  -0.45975  -0.45907  -0.45865
  Beta  occ. eigenvalues --   -0.45826  -0.45672  -0.45565  -0.45218  -0.45161
  Beta  occ. eigenvalues --   -0.45136  -0.45046  -0.44763  -0.44583  -0.44477
  Beta  occ. eigenvalues --   -0.44425  -0.44415  -0.44284  -0.44184  -0.44151
  Beta  occ. eigenvalues --   -0.43470  -0.43155  -0.42490  -0.42460  -0.42397
  Beta  occ. eigenvalues --   -0.42268  -0.42233  -0.42151  -0.42133  -0.41618
  Beta  occ. eigenvalues --   -0.41596  -0.41565  -0.41331  -0.41031  -0.40932
  Beta  occ. eigenvalues --   -0.40749  -0.40691  -0.40649  -0.40335  -0.40327
  Beta  occ. eigenvalues --   -0.40288  -0.40144  -0.40131  -0.40118  -0.39786
  Beta  occ. eigenvalues --   -0.39617  -0.39362  -0.39168  -0.39102  -0.39086
  Beta  occ. eigenvalues --   -0.38894  -0.38840  -0.38821  -0.38771  -0.38717
  Beta  occ. eigenvalues --   -0.38665  -0.38298  -0.38256  -0.38209  -0.37892
  Beta  occ. eigenvalues --   -0.37212  -0.37166  -0.35885  -0.35854  -0.33885
  Beta  occ. eigenvalues --   -0.30896
  Beta virt. eigenvalues --   -0.06417  -0.06353  -0.04918  -0.04878  -0.04748
  Beta virt. eigenvalues --   -0.01532  -0.01418  -0.01368  -0.01167  -0.00936
  Beta virt. eigenvalues --   -0.00923  -0.00897  -0.00154  -0.00092  -0.00054

 Mulliken charges and spin densities:
               1          2
     1  Cl  -0.339458  -0.622984
     2  C   -0.035341  -0.090941
     3  C    0.013340   0.052513
     4  C   -0.034984  -0.086955
     5  C   -0.031608   0.055556
     6  C    0.006681  -0.110447
     7  C   -0.048435   0.055648
     8  H    0.050640   0.004004
     9  H    0.050864   0.003736
    10  H    0.055814  -0.001969
    11  H    0.056581   0.004854
    12  H    0.054351  -0.001958
    13  C    0.002713  -0.241765
    14  C   -0.046207  -0.029245
    15  H    0.075681   0.010105
    16  H    0.095287   0.002103
    17  H    0.086635  -0.000414
    18  O   -0.673017  -0.000571
    19  O   -0.672640  -0.000530
    20  O   -0.666773  -0.001646
    21  O   -0.673208  -0.000543
    22  W    1.720873   0.000359
    23  W    1.663831   0.000479
    24  W    1.674755   0.000170
    25  W    1.684006   0.000200
    26  W    1.664568   0.002686
    27  W    1.713078   0.002404
    28  W    1.614320   0.003342
    29  W    1.674788   0.002803
    30  O   -0.349921  -0.000537
    31  O   -0.393946  -0.000565
    32  O   -0.395928  -0.000608
    33  O   -0.389542  -0.000563
    34  O   -0.674520  -0.000292
    35  O   -0.679315  -0.000044
    36  O   -0.671430  -0.000146
    37  O   -0.674280  -0.000221
    38  O   -0.398177   0.002070
    39  O   -0.395212   0.002097
    40  O   -0.340225   0.000088
    41  O   -0.395309   0.002065
    42  O   -0.678762   0.000033
    43  O   -0.673061   0.000125
    44  O   -0.670812   0.000250
    45  O   -0.674936   0.000074
    46  O   -0.399512   0.002272
    47  O   -0.352248   0.002182
    48  O   -0.395281   0.001840
    49  O   -0.392488   0.002352
    50  W    1.662959   0.002711
    51  W    1.667575   0.002602
    52  W    1.679005   0.003779
    53  W    1.673592   0.002547
    54  O   -0.723540   0.000106
    55  O   -0.707914   0.000020
    56  O   -0.723366   0.000165
    57  O   -0.722051   0.000064
    58  O   -0.705866   0.000052
    59  O   -0.725385   0.000144
    60  O   -0.723228   0.000196
    61  O   -0.719692   0.000186
    62  O   -0.724264  -0.000187
    63  O   -0.708267  -0.000059
    64  O   -0.723676  -0.000214
    65  O   -0.725258  -0.000220
    66  O   -0.885715   0.005068
    67  O   -0.885643   0.007165
    68  O   -0.881959   0.006826
    69  O   -0.889480   0.006343
    70  K    0.849806   0.000187
    71  K    0.850970   0.000207
    72  K    0.846983   0.000213
    73  V    1.202181   0.938630
 Sum of Mulliken charges =  -1.00000  -0.00000

 Dipole moment (field-independent basis, Debye):
    X=             28.4260    Y=            -13.6049    Z=            -30.5158  Tot=             43.8674
 Quadrupole moment (field-independent basis, Debye-Ang):
   XX=           -763.0904   YY=           -709.5697   ZZ=           -777.5096
   XY=            127.6900   XZ=            177.0004   YZ=            -92.3159

 Normal termination of Gaussian 16 at Sun Jun  2 13:33:35 2024.
