 Gaussian 16, Revision C.01,
 Gaussian 16:  ES64L-G16RevC.01  3-Jul-2019

 ----------------------------------------------------------------------
 # def2svp wb97xd scrf=(smd,solvent=acetonitrile) g09default scf=(xqc,m
 axcycle=64) force guess=read nosymm
 ----------------------------------------------------------------------

 ----------
 Title Card
 ----------
 Symbolic Z-matrix:
 Charge = -1 Multiplicity = 1

                          Input orientation:
 ---------------------------------------------------------------------
 Center     Atomic      Atomic             Coordinates (Angstroms)
 Number     Number       Type             X           Y           Z
 ---------------------------------------------------------------------
      1         17           0       -9.695388    8.280255   10.555820
      2          6           0       -8.337756    4.242043   12.218000
      3          6           0       -9.134121    3.929566   11.100375
      4          6           0      -10.043792    2.860824   11.213600
      5          6           0      -10.203452    2.177487   12.414608
      6          6           0       -9.443921    2.535863   13.529202
      7          6           0       -8.494169    3.553798   13.417701
      8          1           0       -7.580276    5.025964   12.147574
      9          1           0      -10.635030    2.569625   10.340876
     10          1           0      -10.920853    1.356011   12.481722
     11          1           0       -9.579314    2.012156   14.478183
     12          1           0       -7.869771    3.812799   14.276392
     13          6           0       -9.063822    4.669963    9.838865
     14          6           0       -8.380416    5.810795    9.607308
     15          1           0       -9.646409    4.238420    9.017234
     16          1           0       -8.371212    6.250115    8.607634
     17          1           0       -7.754697    6.295062   10.357349
     18          8           0       -0.976951   -1.796291    7.467095
     19          8           0       -8.396741   -1.333936    7.461117
     20          8           0       -7.025094    1.348471   10.472133
     21          8           0       -2.334107   -4.393881   10.554216
     22         74           0       -3.405657    0.688771    6.473574
     23         74           0       -5.990732   -3.817872    6.559050
     24         74           0       -3.613607    0.871200   11.421185
     25         74           0       -5.762276   -3.860772   11.481125
     26         74           0       -2.430447   -2.592595    6.403030
     27         74           0       -6.942404   -0.532765    6.372990
     28         74           0       -6.821277   -0.248283   11.559494
     29         74           0       -2.542685   -2.733123   11.601782
     30          8           0       -3.170053    1.870401    5.291588
     31          8           0       -6.123987   -5.069313    5.417823
     32          8           0       -2.688144    1.714399   12.570977
     33          8           0       -6.680548   -4.660695   12.665367
     34          8           0       -2.656917   -0.915758    5.586969
     35          8           0       -6.703125   -2.267139    5.621434
     36          8           0       -5.312019    0.551502   12.360446
     37          8           0       -4.049734   -3.528711   12.405212
     38          8           0        0.307501   -0.010752    9.282986
     39          8           0       -9.694517   -3.041844    9.329363
     40          8           0       -6.344511    3.430778    8.665288
     41          8           0       -3.008834   -6.491342    8.745487
     42          8           0       -1.783461    0.750787    7.473767
     43          8           0       -7.598284   -3.883881    7.542520
     44          8           0       -4.494172    2.197663   10.428196
     45          8           0       -4.874233   -5.229736   10.527860
     46          8           0       -1.600730   -3.540687    5.260260
     47          8           0       -7.822474    0.279576    5.182865
     48          8           0       -8.047171   -0.168727   12.733232
     49          8           0       -1.302237   -2.855485   12.756904
     50         74           0       -1.249441   -0.528406    8.836899
     51         74           0       -8.135497   -2.539169    8.874413
     52         74           0       -5.869298    1.858804    9.044224
     53         74           0       -3.494157   -4.916890    9.164718
     54          8           0       -4.211483   -3.110840    6.071020
     55          8           0       -5.153503   -0.061043    6.014096
     56          8           0       -6.170728   -1.996779   11.907227
     57          8           0       -3.170231   -0.985607   11.927076
     58          8           0       -4.354649    1.580743    7.830241
     59          8           0       -5.005889   -4.680409    7.922071
     60          8           0       -2.325142    0.568652   10.080238
     61          8           0       -7.048135   -3.614511   10.130946
     62          8           0       -2.568167   -3.908661    7.867576
     63          8           0       -6.809875    0.794575    7.802889
     64          8           0       -7.826579   -1.176709   10.138261
     65          8           0       -1.560135   -1.867494   10.138772
     66          8           0       -3.356013   -1.157654    8.007285
     67          8           0       -6.021571   -1.957700    8.033751
     68          8           0       -5.116733   -0.207022    9.943816
     69          8           0       -4.235490   -2.845867    9.974155
     70         19           0       -3.212058   -6.135010    5.645282
     71         19           0       -0.107974    0.054150   12.340879
     72         19           0       -9.287373   -2.837784   12.434228
     73         23           0       -4.684627   -1.538490    8.988039
 ---------------------------------------------------------------------

 SCF Done:  E(RwB97XD) =  -7327.70165683     A.U. after   11 cycles

 Alpha  occ. eigenvalues -- -197.29625-130.00112-130.00080-129.99979-101.48189
 Alpha  occ. eigenvalues --  -22.62729 -19.33700 -19.33698 -19.33692 -19.33666
 Alpha  occ. eigenvalues --  -19.30728 -19.30685 -19.30682 -19.30676 -19.30669
 Alpha  occ. eigenvalues --  -19.30666 -19.30661 -19.30623 -19.30542 -19.30381
 Alpha  occ. eigenvalues --  -19.30345 -19.30180 -19.29322 -19.29306 -19.29304
 Alpha  occ. eigenvalues --  -19.29287 -19.29273 -19.29257 -19.29224 -19.29195
 Alpha  occ. eigenvalues --  -19.29179 -19.29172 -19.29161 -19.29151 -19.29131
 Alpha  occ. eigenvalues --  -19.29101 -19.29093 -19.29071 -19.29066 -19.29058
 Alpha  occ. eigenvalues --  -19.29048 -19.28992 -19.28976 -19.28963 -19.28917
 Alpha  occ. eigenvalues --  -19.28845 -19.11689 -19.11681 -19.11671 -13.37519
 Alpha  occ. eigenvalues --  -13.37485 -13.37378 -10.70448 -10.70441 -10.70440
 Alpha  occ. eigenvalues --  -10.70414 -10.70407 -10.70406 -10.70309 -10.70302
 Alpha  occ. eigenvalues --  -10.70296 -10.29898 -10.29356 -10.29301 -10.29093
 Alpha  occ. eigenvalues --  -10.29012 -10.29008 -10.28176 -10.27671  -9.38656
 Alpha  occ. eigenvalues --   -7.13482  -7.13436  -7.13428  -3.23321  -3.23316
 Alpha  occ. eigenvalues --   -3.23308  -3.23297  -3.23297  -3.23281  -3.23271
 Alpha  occ. eigenvalues --   -3.23257  -3.23223  -3.22988  -3.22981  -3.22793
 Alpha  occ. eigenvalues --   -2.91924  -1.94291  -1.94256  -1.94248  -1.87721
 Alpha  occ. eigenvalues --   -1.87674  -1.87659  -1.87628  -1.87487  -1.87472
 Alpha  occ. eigenvalues --   -1.87467  -1.87450  -1.87423  -1.87289  -1.87256
 Alpha  occ. eigenvalues --   -1.87103  -1.86628  -1.86510  -1.86502  -1.86485
 Alpha  occ. eigenvalues --   -1.86460  -1.86438  -1.86345  -1.86335  -1.86317
 Alpha  occ. eigenvalues --   -1.86298  -1.86294  -1.86262  -1.86148  -1.86137
 Alpha  occ. eigenvalues --   -1.86128  -1.86117  -1.86049  -1.86030  -1.85993
 Alpha  occ. eigenvalues --   -1.85928  -1.85912  -1.85812  -1.85719  -1.85671
 Alpha  occ. eigenvalues --   -1.51204  -1.51175  -1.51074  -1.13096  -1.11333
 Alpha  occ. eigenvalues --   -1.11253  -1.11244  -1.08977  -1.08536  -1.08493
 Alpha  occ. eigenvalues --   -1.08305  -1.07574  -1.07520  -1.07506  -1.06899
 Alpha  occ. eigenvalues --   -1.06883  -1.06867  -1.06325  -1.06309  -1.05307
 Alpha  occ. eigenvalues --   -1.05297  -1.04976  -1.04969  -1.04962  -1.04187
 Alpha  occ. eigenvalues --   -1.04179  -1.04167  -1.04021  -1.04003  -1.03989
 Alpha  occ. eigenvalues --   -1.03933  -1.03907  -1.03890  -1.03759  -1.03726
 Alpha  occ. eigenvalues --   -1.03611  -1.03545  -1.03308  -1.03261  -1.03112
 Alpha  occ. eigenvalues --   -1.03098  -1.03020  -1.02957  -0.94390  -0.86669
 Alpha  occ. eigenvalues --   -0.86642  -0.86549  -0.86520  -0.86480  -0.86465
 Alpha  occ. eigenvalues --   -0.86451  -0.86446  -0.86362  -0.86325  -0.82823
 Alpha  occ. eigenvalues --   -0.79805  -0.71397  -0.69716  -0.68041  -0.64612
 Alpha  occ. eigenvalues --   -0.63982  -0.63916  -0.63908  -0.63345  -0.63323
 Alpha  occ. eigenvalues --   -0.63190  -0.62993  -0.62707  -0.62611  -0.62031
 Alpha  occ. eigenvalues --   -0.61631  -0.61620  -0.61524  -0.61252  -0.61238
 Alpha  occ. eigenvalues --   -0.61171  -0.60409  -0.59492  -0.59477  -0.59459
 Alpha  occ. eigenvalues --   -0.59425  -0.59377  -0.58602  -0.57995  -0.57971
 Alpha  occ. eigenvalues --   -0.57877  -0.57091  -0.57048  -0.57018  -0.56302
 Alpha  occ. eigenvalues --   -0.56278  -0.56117  -0.55700  -0.54860  -0.54803
 Alpha  occ. eigenvalues --   -0.54768  -0.54547  -0.54238  -0.54109  -0.54086
 Alpha  occ. eigenvalues --   -0.54015  -0.53956  -0.53228  -0.53190  -0.53060
 Alpha  occ. eigenvalues --   -0.53025  -0.52901  -0.52694  -0.52656  -0.52632
 Alpha  occ. eigenvalues --   -0.52577  -0.52525  -0.52465  -0.52460  -0.51602
 Alpha  occ. eigenvalues --   -0.51576  -0.51339  -0.51313  -0.51272  -0.51231
 Alpha  occ. eigenvalues --   -0.51175  -0.51170  -0.50956  -0.50753  -0.50573
 Alpha  occ. eigenvalues --   -0.50556  -0.50550  -0.49872  -0.49850  -0.49300
 Alpha  occ. eigenvalues --   -0.49289  -0.49255  -0.49219  -0.49160  -0.49068
 Alpha  occ. eigenvalues --   -0.48900  -0.48085  -0.48032  -0.47933  -0.47733
 Alpha  occ. eigenvalues --   -0.47384  -0.47285  -0.47242  -0.47000  -0.46924
 Alpha  occ. eigenvalues --   -0.46814  -0.46556  -0.46485  -0.46467  -0.46203
 Alpha  occ. eigenvalues --   -0.46149  -0.46112  -0.45609  -0.45096  -0.44917
 Alpha  occ. eigenvalues --   -0.44874  -0.44208  -0.44150  -0.44038  -0.43548
 Alpha  occ. eigenvalues --   -0.43272  -0.43220  -0.43111  -0.43093  -0.43059
 Alpha  occ. eigenvalues --   -0.42698  -0.42673  -0.42652  -0.42586  -0.42579
 Alpha  occ. eigenvalues --   -0.42495  -0.42453  -0.42436  -0.42277  -0.42260
 Alpha  occ. eigenvalues --   -0.42241  -0.42017  -0.41906  -0.41848  -0.41828
 Alpha  occ. eigenvalues --   -0.41194  -0.41149  -0.41136  -0.41009  -0.40543
 Alpha  occ. eigenvalues --   -0.40511  -0.40493  -0.40403  -0.39443  -0.39426
 Alpha  occ. eigenvalues --   -0.36985  -0.32549  -0.29109  -0.24986  -0.24964
 Alpha  occ. eigenvalues --   -0.23590
 Alpha virt. eigenvalues --   -0.09609  -0.09373  -0.08548  -0.08481  -0.07077
 Alpha virt. eigenvalues --   -0.07047  -0.06931  -0.04617  -0.04256  -0.04211
 Alpha virt. eigenvalues --   -0.03733  -0.03524  -0.03473  -0.03267  -0.03164

 Mulliken charges:
               1
     1  Cl  -0.904468
     2  C   -0.078420
     3  C    0.047262
     4  C   -0.077557
     5  C   -0.033883
     6  C   -0.033301
     7  C   -0.050173
     8  H    0.030907
     9  H    0.030145
    10  H    0.041448
    11  H    0.037253
    12  H    0.040284
    13  C   -0.120452
    14  C    0.019906
    15  H    0.022472
    16  H    0.039707
    17  H    0.025571
    18  O   -0.664046
    19  O   -0.663765
    20  O   -0.655465
    21  O   -0.664150
    22  W    1.737221
    23  W    1.678165
    24  W    1.687562
    25  W    1.698190
    26  W    1.678149
    27  W    1.730606
    28  W    1.622473
    29  W    1.689295
    30  O   -0.319890
    31  O   -0.365583
    32  O   -0.367450
    33  O   -0.360967
    34  O   -0.666145
    35  O   -0.671784
    36  O   -0.662260
    37  O   -0.665302
    38  O   -0.368421
    39  O   -0.365325
    40  O   -0.297060
    41  O   -0.365321
    42  O   -0.670983
    43  O   -0.664333
    44  O   -0.662316
    45  O   -0.666368
    46  O   -0.369455
    47  O   -0.320490
    48  O   -0.362412
    49  O   -0.362490
    50  W    1.677011
    51  W    1.682092
    52  W    1.686032
    53  W    1.688251
    54  O   -0.725667
    55  O   -0.709615
    56  O   -0.726741
    57  O   -0.723879
    58  O   -0.707905
    59  O   -0.728223
    60  O   -0.725822
    61  O   -0.722018
    62  O   -0.725738
    63  O   -0.709369
    64  O   -0.724720
    65  O   -0.727343
    66  O   -0.803079
    67  O   -0.802300
    68  O   -0.798509
    69  O   -0.809431
    70  K    0.863349
    71  K    0.864083
    72  K    0.860558
    73  V    1.192399
 Sum of Mulliken charges =  -1.00000

 Dipole moment (field-independent basis, Debye):
    X=             50.6469    Y=            -51.4786    Z=            -38.6719  Tot=             81.9187
 Quadrupole moment (field-independent basis, Debye-Ang):
   XX=          -1046.9241   YY=           -892.3673   ZZ=           -913.3286
   XY=            452.3291   XZ=            453.6765   YZ=           -481.0935

 Normal termination of Gaussian 16 at Sun Jun  2 14:26:33 2024.
