 Gaussian 16, Revision C.01,
 Gaussian 16:  ES64L-G16RevC.01  3-Jul-2019

 ----------------------------------------------------------------------
 # def2svp wb97xd scrf=(smd,solvent=acetonitrile) g09default scf=(xqc,m
 axcycle=64) force guess=read nosymm
 ----------------------------------------------------------------------

 ----------
 Title Card
 ----------
 Symbolic Z-matrix:
 Charge = -1 Multiplicity = 1

                          Input orientation:
 ---------------------------------------------------------------------
 Center     Atomic      Atomic             Coordinates (Angstroms)
 Number     Number       Type             X           Y           Z
 ---------------------------------------------------------------------
      1         17           0       -9.695388    8.280255   10.555820
      2          6           0       -8.337756    4.242043   12.218000
      3          6           0       -9.134121    3.929566   11.100375
      4          6           0      -10.043792    2.860824   11.213600
      5          6           0      -10.203452    2.177487   12.414608
      6          6           0       -9.443921    2.535863   13.529202
      7          6           0       -8.494169    3.553798   13.417701
      8          1           0       -7.580276    5.025964   12.147574
      9          1           0      -10.635030    2.569625   10.340876
     10          1           0      -10.920853    1.356011   12.481722
     11          1           0       -9.579314    2.012156   14.478183
     12          1           0       -7.869771    3.812799   14.276392
     13          6           0       -9.063822    4.669963    9.838865
     14          6           0       -8.380416    5.810795    9.607308
     15          1           0       -9.646409    4.238420    9.017234
     16          1           0       -8.371212    6.250115    8.607634
     17          1           0       -7.754697    6.295062   10.357349
     18          8           0       -0.976951   -1.796291    7.467095
     19          8           0       -8.396741   -1.333936    7.461117
     20          8           0       -7.025094    1.348471   10.472133
     21          8           0       -2.334107   -4.393881   10.554216
     22         74           0       -3.405657    0.688771    6.473574
     23         74           0       -5.990732   -3.817872    6.559050
     24         74           0       -3.613607    0.871200   11.421185
     25         74           0       -5.762276   -3.860772   11.481125
     26         74           0       -2.430447   -2.592595    6.403030
     27         74           0       -6.942404   -0.532765    6.372990
     28         74           0       -6.821277   -0.248283   11.559494
     29         74           0       -2.542685   -2.733123   11.601782
     30          8           0       -3.170053    1.870401    5.291588
     31          8           0       -6.123987   -5.069313    5.417823
     32          8           0       -2.688144    1.714399   12.570977
     33          8           0       -6.680548   -4.660695   12.665367
     34          8           0       -2.656917   -0.915758    5.586969
     35          8           0       -6.703125   -2.267139    5.621434
     36          8           0       -5.312019    0.551502   12.360446
     37          8           0       -4.049734   -3.528711   12.405212
     38          8           0        0.307501   -0.010752    9.282986
     39          8           0       -9.694517   -3.041844    9.329363
     40          8           0       -6.344511    3.430778    8.665288
     41          8           0       -3.008834   -6.491342    8.745487
     42          8           0       -1.783461    0.750787    7.473767
     43          8           0       -7.598284   -3.883881    7.542520
     44          8           0       -4.494172    2.197663   10.428196
     45          8           0       -4.874233   -5.229736   10.527860
     46          8           0       -1.600730   -3.540687    5.260260
     47          8           0       -7.822474    0.279576    5.182865
     48          8           0       -8.047171   -0.168727   12.733232
     49          8           0       -1.302237   -2.855485   12.756904
     50         74           0       -1.249441   -0.528406    8.836899
     51         74           0       -8.135497   -2.539169    8.874413
     52         74           0       -5.869298    1.858804    9.044224
     53         74           0       -3.494157   -4.916890    9.164718
     54          8           0       -4.211483   -3.110840    6.071020
     55          8           0       -5.153503   -0.061043    6.014096
     56          8           0       -6.170728   -1.996779   11.907227
     57          8           0       -3.170231   -0.985607   11.927076
     58          8           0       -4.354649    1.580743    7.830241
     59          8           0       -5.005889   -4.680409    7.922071
     60          8           0       -2.325142    0.568652   10.080238
     61          8           0       -7.048135   -3.614511   10.130946
     62          8           0       -2.568167   -3.908661    7.867576
     63          8           0       -6.809875    0.794575    7.802889
     64          8           0       -7.826579   -1.176709   10.138261
     65          8           0       -1.560135   -1.867494   10.138772
     66          8           0       -3.356013   -1.157654    8.007285
     67          8           0       -6.021571   -1.957700    8.033751
     68          8           0       -5.116733   -0.207022    9.943816
     69          8           0       -4.235490   -2.845867    9.974155
     70         19           0       -3.212058   -6.135010    5.645282
     71         19           0       -0.107974    0.054150   12.340879
     72         19           0       -9.287373   -2.837784   12.434228
     73         23           0       -4.684627   -1.538490    8.988039
 ---------------------------------------------------------------------

 SCF Done:  E(UwB97XD) =  -7327.70166676     A.U. after   50 cycles

 Alpha  occ. eigenvalues --  -19.24754 -18.94362 -18.93259 -18.93254 -13.36549
 Alpha  occ. eigenvalues --  -13.36467 -13.36447 -10.69476 -10.69471 -10.69470
 Alpha  occ. eigenvalues --  -10.69394 -10.69389 -10.69388 -10.69376 -10.69372
 Alpha  occ. eigenvalues --  -10.69365 -10.32961 -10.32132 -10.31953 -10.30995
 Alpha  occ. eigenvalues --  -10.30967 -10.30953 -10.30553 -10.30481  -9.52814
 Alpha  occ. eigenvalues --   -7.27701  -7.27349  -7.27345  -3.21133  -3.21093
 Alpha  occ. eigenvalues --   -3.21068  -3.21046  -3.21045  -3.21024  -3.21021
 Alpha  occ. eigenvalues --   -3.21014  -3.21006  -3.20889  -3.20877  -3.20847
 Alpha  occ. eigenvalues --   -2.78999  -1.85354  -1.85294  -1.85284  -1.85257
 Alpha  occ. eigenvalues --   -1.85143  -1.85077  -1.85062  -1.85047  -1.85031
 Alpha  occ. eigenvalues --   -1.85020  -1.85009  -1.84952  -1.84394  -1.84285
 Alpha  occ. eigenvalues --   -1.84269  -1.84255  -1.84221  -1.84211  -1.84152
 Alpha  occ. eigenvalues --   -1.84137  -1.84111  -1.84102  -1.84075  -1.84063
 Alpha  occ. eigenvalues --   -1.83963  -1.83923  -1.83889  -1.83882  -1.83863
 Alpha  occ. eigenvalues --   -1.83833  -1.83811  -1.83802  -1.83794  -1.83696
 Alpha  occ. eigenvalues --   -1.83686  -1.83679  -1.82140  -1.81792  -1.81786
 Alpha  occ. eigenvalues --   -1.50248  -1.50171  -1.50157  -1.08631  -1.07006
 Alpha  occ. eigenvalues --   -1.06965  -1.06925  -1.06012  -1.06008  -1.05976
 Alpha  occ. eigenvalues --   -1.04575  -1.04569  -1.04557  -1.03991  -1.03979
 Alpha  occ. eigenvalues --   -1.03757  -1.03386  -1.03358  -1.03336  -1.03025
 Alpha  occ. eigenvalues --   -1.02991  -1.02263  -1.02231  -1.02222  -1.02088
 Alpha  occ. eigenvalues --   -1.02004  -1.01974  -1.01906  -1.01885  -1.01771
 Alpha  occ. eigenvalues --   -1.01753  -1.01736  -1.01623  -1.01587  -1.01563
 Alpha  occ. eigenvalues --   -1.01292  -1.00831  -1.00746  -1.00683  -1.00678
 Alpha  occ. eigenvalues --   -1.00051  -0.99995  -0.99935  -0.96145  -0.89199
 Alpha  occ. eigenvalues --   -0.85688  -0.85614  -0.85607  -0.85538  -0.85520
 Alpha  occ. eigenvalues --   -0.85461  -0.85460  -0.85454  -0.85417  -0.84238
 Alpha  occ. eigenvalues --   -0.82441  -0.81179  -0.71890  -0.69593  -0.65040
 Alpha  occ. eigenvalues --   -0.62335  -0.61719  -0.61666  -0.61642  -0.60534
 Alpha  occ. eigenvalues --   -0.58973  -0.58952  -0.58932  -0.58877  -0.58814
 Alpha  occ. eigenvalues --   -0.58806  -0.58776  -0.58737  -0.58558  -0.57399
 Alpha  occ. eigenvalues --   -0.57361  -0.57344  -0.57045  -0.56703  -0.56514
 Alpha  occ. eigenvalues --   -0.56469  -0.56425  -0.56049  -0.55902  -0.55364
 Alpha  occ. eigenvalues --   -0.55351  -0.55316  -0.54439  -0.54153  -0.54134
 Alpha  occ. eigenvalues --   -0.53934  -0.53725  -0.53683  -0.53662  -0.52705
 Alpha  occ. eigenvalues --   -0.52627  -0.52602  -0.52497  -0.52459  -0.51482
 Alpha  occ. eigenvalues --   -0.51466  -0.51441  -0.51346  -0.51289  -0.50751
 Alpha  occ. eigenvalues --   -0.50556  -0.50534  -0.50479  -0.50387  -0.50310
 Alpha  occ. eigenvalues --   -0.50289  -0.50045  -0.50001  -0.49978  -0.49730
 Alpha  occ. eigenvalues --   -0.49630  -0.49586  -0.49494  -0.49468  -0.49291
 Alpha  occ. eigenvalues --   -0.49245  -0.49205  -0.49152  -0.49101  -0.49035
 Alpha  occ. eigenvalues --   -0.48692  -0.48526  -0.48507  -0.48449  -0.47644
 Alpha  occ. eigenvalues --   -0.47615  -0.47127  -0.46479  -0.46050  -0.46026
 Alpha  occ. eigenvalues --   -0.45895  -0.45791  -0.45753  -0.45615  -0.45219
 Alpha  occ. eigenvalues --   -0.45139  -0.45134  -0.44764  -0.44584  -0.44491
 Alpha  occ. eigenvalues --   -0.44478  -0.44447  -0.44303  -0.44206  -0.44166
 Alpha  occ. eigenvalues --   -0.43475  -0.43049  -0.42551  -0.42513  -0.42432
 Alpha  occ. eigenvalues --   -0.42341  -0.42191  -0.42170  -0.42154  -0.41635
 Alpha  occ. eigenvalues --   -0.41618  -0.41589  -0.41026  -0.40978  -0.40759
 Alpha  occ. eigenvalues --   -0.40757  -0.40720  -0.40351  -0.40336  -0.40306
 Alpha  occ. eigenvalues --   -0.40195  -0.40155  -0.40143  -0.40111  -0.39844
 Alpha  occ. eigenvalues --   -0.39365  -0.39264  -0.39247  -0.39125  -0.39073
 Alpha  occ. eigenvalues --   -0.38898  -0.38868  -0.38812  -0.38777  -0.38698
 Alpha  occ. eigenvalues --   -0.38299  -0.38260  -0.38212  -0.37975  -0.37211
 Alpha  occ. eigenvalues --   -0.37173  -0.34919  -0.34891  -0.33620  -0.30217
 Alpha  occ. eigenvalues --   -0.26002
 Alpha virt. eigenvalues --   -0.12331  -0.06421  -0.06354  -0.04921  -0.04879
 Alpha virt. eigenvalues --   -0.04752  -0.01536  -0.01423  -0.01376  -0.01173
 Alpha virt. eigenvalues --   -0.00941  -0.00929  -0.00903  -0.00166  -0.00104

  Beta  occ. eigenvalues -- -197.11121-129.99136-129.99056-129.99043-101.62814
  Beta  occ. eigenvalues --  -22.43520 -19.28545 -19.28508 -19.28453 -19.28397
  Beta  occ. eigenvalues --  -19.28384 -19.28361 -19.28349 -19.28346 -19.28338
  Beta  occ. eigenvalues --  -19.28283 -19.28254 -19.28159 -19.26950 -19.26908
  Beta  occ. eigenvalues --  -19.26903 -19.26864 -19.26862 -19.26828 -19.26820
  Beta  occ. eigenvalues --  -19.26816 -19.26815 -19.26812 -19.26791 -19.26788
  Beta  occ. eigenvalues --  -19.26762 -19.26760 -19.26760 -19.26754 -19.26753
  Beta  occ. eigenvalues --  -19.26752 -19.26727 -19.26727 -19.26719 -19.26700
  Beta  occ. eigenvalues --  -19.26646 -19.26590 -19.24815 -19.24788 -19.24750
  Beta  occ. eigenvalues --  -19.24729 -18.94016 -18.91795 -18.91789 -13.36549
  Beta  occ. eigenvalues --  -13.36467 -13.36447 -10.69476 -10.69471 -10.69470
  Beta  occ. eigenvalues --  -10.69394 -10.69389 -10.69388 -10.69376 -10.69372
  Beta  occ. eigenvalues --  -10.69365 -10.33221 -10.32253 -10.31907 -10.31094
  Beta  occ. eigenvalues --  -10.31085 -10.31048 -10.30497 -10.30425  -9.53271
  Beta  occ. eigenvalues --   -7.29141  -7.27663  -7.27658  -3.21132  -3.21086
  Beta  occ. eigenvalues --   -3.21068  -3.21046  -3.21039  -3.21018  -3.21015
  Beta  occ. eigenvalues --   -3.21009  -3.21000  -3.20888  -3.20873  -3.20842
  Beta  occ. eigenvalues --   -2.74930  -1.85349  -1.85289  -1.85279  -1.85249
  Beta  occ. eigenvalues --   -1.85137  -1.85071  -1.85057  -1.85041  -1.85022
  Beta  occ. eigenvalues --   -1.85012  -1.85002  -1.84943  -1.84392  -1.84283
  Beta  occ. eigenvalues --   -1.84265  -1.84252  -1.84218  -1.84208  -1.84149
  Beta  occ. eigenvalues --   -1.84135  -1.84108  -1.84099  -1.84073  -1.84060
  Beta  occ. eigenvalues --   -1.83961  -1.83920  -1.83886  -1.83879  -1.83860
  Beta  occ. eigenvalues --   -1.83830  -1.83808  -1.83799  -1.83790  -1.83694
  Beta  occ. eigenvalues --   -1.83683  -1.83677  -1.80798  -1.76032  -1.76024
  Beta  occ. eigenvalues --   -1.50248  -1.50171  -1.50157  -1.08614  -1.06987
  Beta  occ. eigenvalues --   -1.06942  -1.06897  -1.06010  -1.06006  -1.05976
  Beta  occ. eigenvalues --   -1.04577  -1.04569  -1.04556  -1.03993  -1.03978
  Beta  occ. eigenvalues --   -1.03690  -1.03356  -1.03317  -1.03299  -1.03025
  Beta  occ. eigenvalues --   -1.02984  -1.02245  -1.02207  -1.02205  -1.02079
  Beta  occ. eigenvalues --   -1.01999  -1.01961  -1.01901  -1.01871  -1.01767
  Beta  occ. eigenvalues --   -1.01750  -1.01733  -1.01620  -1.01585  -1.01547
  Beta  occ. eigenvalues --   -1.01292  -1.00792  -1.00745  -1.00683  -1.00678
  Beta  occ. eigenvalues --   -0.99917  -0.99865  -0.99819  -0.96362  -0.89838
  Beta  occ. eigenvalues --   -0.85688  -0.85614  -0.85607  -0.85538  -0.85520
  Beta  occ. eigenvalues --   -0.85461  -0.85460  -0.85454  -0.85417  -0.84823
  Beta  occ. eigenvalues --   -0.84331  -0.82701  -0.72137  -0.69710  -0.65275
  Beta  occ. eigenvalues --   -0.62335  -0.61718  -0.61666  -0.61642  -0.60733
  Beta  occ. eigenvalues --   -0.58969  -0.58951  -0.58930  -0.58804  -0.58792
  Beta  occ. eigenvalues --   -0.58769  -0.58748  -0.58679  -0.58559  -0.57362
  Beta  occ. eigenvalues --   -0.57216  -0.57174  -0.56999  -0.56873  -0.56518
  Beta  occ. eigenvalues --   -0.56435  -0.56389  -0.55858  -0.55644  -0.55345
  Beta  occ. eigenvalues --   -0.55333  -0.55316  -0.54634  -0.54146  -0.54126
  Beta  occ. eigenvalues --   -0.53924  -0.53686  -0.53654  -0.53622  -0.52756
  Beta  occ. eigenvalues --   -0.52649  -0.52591  -0.52477  -0.52454  -0.51456
  Beta  occ. eigenvalues --   -0.51441  -0.51434  -0.51285  -0.51215  -0.50931
  Beta  occ. eigenvalues --   -0.50535  -0.50474  -0.50453  -0.50327  -0.50253
  Beta  occ. eigenvalues --   -0.50166  -0.50015  -0.49998  -0.49945  -0.49677
  Beta  occ. eigenvalues --   -0.49606  -0.49550  -0.49484  -0.49457  -0.49290
  Beta  occ. eigenvalues --   -0.49224  -0.49202  -0.49125  -0.49088  -0.49015
  Beta  occ. eigenvalues --   -0.48686  -0.48523  -0.48507  -0.48442  -0.47777
  Beta  occ. eigenvalues --   -0.47577  -0.47555  -0.45980  -0.45907  -0.45865
  Beta  occ. eigenvalues --   -0.45826  -0.45672  -0.45566  -0.45219  -0.45161
  Beta  occ. eigenvalues --   -0.45138  -0.45047  -0.44764  -0.44582  -0.44476
  Beta  occ. eigenvalues --   -0.44425  -0.44414  -0.44284  -0.44185  -0.44152
  Beta  occ. eigenvalues --   -0.43470  -0.43156  -0.42490  -0.42459  -0.42398
  Beta  occ. eigenvalues --   -0.42269  -0.42238  -0.42150  -0.42133  -0.41620
  Beta  occ. eigenvalues --   -0.41597  -0.41566  -0.41337  -0.41033  -0.40933
  Beta  occ. eigenvalues --   -0.40749  -0.40690  -0.40651  -0.40335  -0.40328
  Beta  occ. eigenvalues --   -0.40289  -0.40144  -0.40131  -0.40120  -0.39787
  Beta  occ. eigenvalues --   -0.39616  -0.39363  -0.39169  -0.39101  -0.39086
  Beta  occ. eigenvalues --   -0.38895  -0.38840  -0.38820  -0.38769  -0.38717
  Beta  occ. eigenvalues --   -0.38663  -0.38298  -0.38257  -0.38209  -0.37881
  Beta  occ. eigenvalues --   -0.37213  -0.37167  -0.35880  -0.35847  -0.33888
  Beta  occ. eigenvalues --   -0.30898
  Beta virt. eigenvalues --   -0.06419  -0.06354  -0.04920  -0.04879  -0.04751
  Beta virt. eigenvalues --   -0.01531  -0.01418  -0.01371  -0.01167  -0.00936
  Beta virt. eigenvalues --   -0.00925  -0.00898  -0.00155  -0.00091  -0.00054

 Mulliken charges and spin densities:
               1          2
     1  Cl  -0.339699  -0.622161
     2  C   -0.035362  -0.091288
     3  C    0.013197   0.052935
     4  C   -0.035001  -0.087342
     5  C   -0.031591   0.055785
     6  C    0.006697  -0.110796
     7  C   -0.048418   0.055854
     8  H    0.050741   0.004020
     9  H    0.050839   0.003752
    10  H    0.055799  -0.001978
    11  H    0.056611   0.004869
    12  H    0.054407  -0.001966
    13  C    0.003170  -0.243629
    14  C   -0.046515  -0.027849
    15  H    0.075796   0.010170
    16  H    0.095296   0.002014
    17  H    0.086671  -0.000576
    18  O   -0.673023  -0.000571
    19  O   -0.672658  -0.000530
    20  O   -0.666818  -0.001642
    21  O   -0.673231  -0.000543
    22  W    1.720732   0.000360
    23  W    1.663939   0.000479
    24  W    1.674846   0.000170
    25  W    1.684168   0.000201
    26  W    1.664542   0.002686
    27  W    1.713040   0.002406
    28  W    1.614332   0.003344
    29  W    1.674941   0.002804
    30  O   -0.349847  -0.000536
    31  O   -0.393974  -0.000565
    32  O   -0.395875  -0.000608
    33  O   -0.389727  -0.000564
    34  O   -0.674490  -0.000291
    35  O   -0.679304  -0.000043
    36  O   -0.671418  -0.000146
    37  O   -0.674237  -0.000219
    38  O   -0.398191   0.002074
    39  O   -0.395449   0.002104
    40  O   -0.339987   0.000100
    41  O   -0.395376   0.002071
    42  O   -0.678783   0.000032
    43  O   -0.673052   0.000124
    44  O   -0.670825   0.000249
    45  O   -0.674890   0.000074
    46  O   -0.399332   0.002270
    47  O   -0.352249   0.002180
    48  O   -0.395400   0.001841
    49  O   -0.392669   0.002351
    50  W    1.662960   0.002715
    51  W    1.667716   0.002610
    52  W    1.678894   0.003789
    53  W    1.673676   0.002554
    54  O   -0.723625   0.000107
    55  O   -0.707899   0.000020
    56  O   -0.723364   0.000165
    57  O   -0.722071   0.000065
    58  O   -0.705830   0.000054
    59  O   -0.725400   0.000144
    60  O   -0.723273   0.000197
    61  O   -0.719690   0.000187
    62  O   -0.724270  -0.000187
    63  O   -0.708210  -0.000060
    64  O   -0.723723  -0.000214
    65  O   -0.725259  -0.000219
    66  O   -0.885620   0.005091
    67  O   -0.885646   0.007168
    68  O   -0.881860   0.006841
    69  O   -0.889647   0.006341
    70  K    0.849728   0.000188
    71  K    0.850816   0.000207
    72  K    0.846853   0.000214
    73  V    1.202373   0.938552
 Sum of Mulliken charges =  -1.00000   0.00000

 Dipole moment (field-independent basis, Debye):
    X=             28.4029    Y=            -13.5808    Z=            -30.5321  Tot=             43.8563
 Quadrupole moment (field-independent basis, Debye-Ang):
   XX=           -762.7521   YY=           -709.6875   ZZ=           -777.8439
   XY=            127.3709   XZ=            176.8294   YZ=            -92.0258

 Normal termination of Gaussian 16 at Sun Jun  2 14:16:19 2024.
