 Gaussian 16, Revision C.01,
 Gaussian 16:  ES64L-G16RevC.01  3-Jul-2019

 ----------------------------------------------------------------------
 # def2svp wb97xd scrf=(smd,solvent=acetonitrile) g09default scf=(xqc,m
 axcycle=64) force guess=read nosymm
 ----------------------------------------------------------------------

 ----------
 Title Card
 ----------
 Symbolic Z-matrix:
 Charge = -1 Multiplicity = 1

                          Input orientation:
 ---------------------------------------------------------------------
 Center     Atomic      Atomic             Coordinates (Angstroms)
 Number     Number       Type             X           Y           Z
 ---------------------------------------------------------------------
      1         17           0       -9.686752    8.280935   10.554842
      2          6           0       -8.338601    4.242925   12.217614
      3          6           0       -9.135168    3.930004   11.100146
      4          6           0      -10.044880    2.861428   11.213931
      5          6           0      -10.203725    2.177836   12.414801
      6          6           0       -9.443275    2.535861   13.528984
      7          6           0       -8.494156    3.554383   13.417203
      8          1           0       -7.581933    5.027651   12.147072
      9          1           0      -10.637323    2.571191   10.341676
     10          1           0      -10.921421    1.356673   12.482260
     11          1           0       -9.577817    2.011751   14.477798
     12          1           0       -7.869782    3.813728   14.275867
     13          6           0       -9.066335    4.670617    9.838753
     14          6           0       -8.386388    5.813824    9.608671
     15          1           0       -9.648048    4.238242    9.016954
     16          1           0       -8.380176    6.256288    8.610463
     17          1           0       -7.762149    6.298489   10.359528
     18          8           0       -0.976506   -1.797250    7.467119
     19          8           0       -8.395747   -1.333788    7.461228
     20          8           0       -7.024302    1.348427   10.472092
     21          8           0       -2.334141   -4.394746   10.554321
     22         74           0       -3.405053    0.688574    6.473845
     23         74           0       -5.990305   -3.817986    6.558695
     24         74           0       -3.613146    0.870449   11.420724
     25         74           0       -5.762068   -3.861285   11.481605
     26         74           0       -2.429961   -2.592887    6.403280
     27         74           0       -6.941811   -0.532833    6.372884
     28         74           0       -6.820637   -0.248478   11.559417
     29         74           0       -2.542399   -2.734234   11.601752
     30          8           0       -3.169749    1.869976    5.291376
     31          8           0       -6.123389   -5.069413    5.417428
     32          8           0       -2.686927    1.713164   12.570362
     33          8           0       -6.680745   -4.660847   12.665460
     34          8           0       -2.656771   -0.916299    5.587339
     35          8           0       -6.702580   -2.267229    5.621248
     36          8           0       -5.311285    0.551183   12.360292
     37          8           0       -4.049631   -3.529442   12.405591
     38          8           0        0.308311   -0.011733    9.282599
     39          8           0       -9.693731   -3.042184    9.329177
     40          8           0       -6.344002    3.430958    8.664878
     41          8           0       -3.009637   -6.492027    8.744919
     42          8           0       -1.782810    0.749904    7.473636
     43          8           0       -7.597949   -3.883789    7.542164
     44          8           0       -4.493385    2.197050   10.427855
     45          8           0       -4.874058   -5.230316   10.528364
     46          8           0       -1.600316   -3.540511    5.260012
     47          8           0       -7.821289    0.279864    5.182526
     48          8           0       -8.046210   -0.168787   12.733420
     49          8           0       -1.302373   -2.856125   12.757085
     50         74           0       -1.248838   -0.529344    8.837024
     51         74           0       -8.134822   -2.539518    8.874407
     52         74           0       -5.868927    1.858785    9.043974
     53         74           0       -3.494473   -4.917651    9.164569
     54          8           0       -4.211192   -3.111305    6.071505
     55          8           0       -5.152798   -0.061618    6.014707
     56          8           0       -6.170195   -1.997040   11.907148
     57          8           0       -3.170539   -0.986694   11.926019
     58          8           0       -4.354014    1.580581    7.830311
     59          8           0       -5.006128   -4.680711    7.922401
     60          8           0       -2.324529    0.567629   10.079826
     61          8           0       -7.047387   -3.614647   10.130725
     62          8           0       -2.568166   -3.909161    7.867900
     63          8           0       -6.809390    0.794763    7.802755
     64          8           0       -7.825961   -1.176840   10.138278
     65          8           0       -1.559376   -1.868487   10.138805
     66          8           0       -3.355540   -1.158195    8.007894
     67          8           0       -6.020753   -1.958087    8.033770
     68          8           0       -5.116324   -0.207619    9.943618
     69          8           0       -4.235394   -2.846589    9.974305
     70         19           0       -3.212039   -6.134595    5.645497
     71         19           0       -0.108537    0.053342   12.339451
     72         19           0       -9.286796   -2.835516   12.433496
     73         23           0       -4.684130   -1.539081    8.988239
 ---------------------------------------------------------------------

 SCF Done:  E(RwB97XD) =  -7327.70167843     A.U. after   10 cycles

 Alpha  occ. eigenvalues -- -197.29608-130.00109-130.00079-129.99977-101.48213
 Alpha  occ. eigenvalues --  -22.62715 -19.33693 -19.33688 -19.33684 -19.33660
 Alpha  occ. eigenvalues --  -19.30728 -19.30684 -19.30683 -19.30677 -19.30671
 Alpha  occ. eigenvalues --  -19.30668 -19.30661 -19.30626 -19.30545 -19.30379
 Alpha  occ. eigenvalues --  -19.30346 -19.30180 -19.29322 -19.29306 -19.29306
 Alpha  occ. eigenvalues --  -19.29284 -19.29271 -19.29255 -19.29223 -19.29195
 Alpha  occ. eigenvalues --  -19.29183 -19.29171 -19.29163 -19.29148 -19.29130
 Alpha  occ. eigenvalues --  -19.29099 -19.29092 -19.29070 -19.29069 -19.29059
 Alpha  occ. eigenvalues --  -19.29050 -19.28995 -19.28979 -19.28964 -19.28919
 Alpha  occ. eigenvalues --  -19.28848 -19.11674 -19.11666 -19.11656 -13.37515
 Alpha  occ. eigenvalues --  -13.37483 -13.37376 -10.70444 -10.70437 -10.70436
 Alpha  occ. eigenvalues --  -10.70413 -10.70406 -10.70405 -10.70306 -10.70300
 Alpha  occ. eigenvalues --  -10.70294 -10.29893 -10.29354 -10.29299 -10.29089
 Alpha  occ. eigenvalues --  -10.29005 -10.29003 -10.28163 -10.27651  -9.38681
 Alpha  occ. eigenvalues --   -7.13506  -7.13461  -7.13453  -3.23321  -3.23317
 Alpha  occ. eigenvalues --   -3.23309  -3.23297  -3.23296  -3.23282  -3.23270
 Alpha  occ. eigenvalues --   -3.23258  -3.23225  -3.22988  -3.22981  -3.22794
 Alpha  occ. eigenvalues --   -2.91913  -1.94282  -1.94247  -1.94237  -1.87722
 Alpha  occ. eigenvalues --   -1.87674  -1.87660  -1.87630  -1.87488  -1.87473
 Alpha  occ. eigenvalues --   -1.87467  -1.87452  -1.87425  -1.87288  -1.87256
 Alpha  occ. eigenvalues --   -1.87102  -1.86628  -1.86510  -1.86502  -1.86485
 Alpha  occ. eigenvalues --   -1.86460  -1.86438  -1.86346  -1.86336  -1.86318
 Alpha  occ. eigenvalues --   -1.86299  -1.86294  -1.86263  -1.86149  -1.86137
 Alpha  occ. eigenvalues --   -1.86128  -1.86118  -1.86048  -1.86031  -1.85994
 Alpha  occ. eigenvalues --   -1.85929  -1.85912  -1.85813  -1.85721  -1.85673
 Alpha  occ. eigenvalues --   -1.51200  -1.51174  -1.51072  -1.13093  -1.11327
 Alpha  occ. eigenvalues --   -1.11249  -1.11241  -1.08975  -1.08535  -1.08492
 Alpha  occ. eigenvalues --   -1.08308  -1.07573  -1.07519  -1.07505  -1.06899
 Alpha  occ. eigenvalues --   -1.06885  -1.06868  -1.06325  -1.06309  -1.05309
 Alpha  occ. eigenvalues --   -1.05298  -1.04976  -1.04970  -1.04964  -1.04188
 Alpha  occ. eigenvalues --   -1.04180  -1.04167  -1.04022  -1.04004  -1.03991
 Alpha  occ. eigenvalues --   -1.03935  -1.03908  -1.03892  -1.03760  -1.03729
 Alpha  occ. eigenvalues --   -1.03613  -1.03547  -1.03306  -1.03261  -1.03112
 Alpha  occ. eigenvalues --   -1.03098  -1.03020  -1.02957  -0.94386  -0.86666
 Alpha  occ. eigenvalues --   -0.86641  -0.86548  -0.86514  -0.86477  -0.86461
 Alpha  occ. eigenvalues --   -0.86449  -0.86445  -0.86361  -0.86323  -0.82821
 Alpha  occ. eigenvalues --   -0.79797  -0.71427  -0.69709  -0.68035  -0.64613
 Alpha  occ. eigenvalues --   -0.63985  -0.63915  -0.63907  -0.63342  -0.63322
 Alpha  occ. eigenvalues --   -0.63188  -0.62984  -0.62705  -0.62610  -0.62028
 Alpha  occ. eigenvalues --   -0.61630  -0.61620  -0.61524  -0.61254  -0.61240
 Alpha  occ. eigenvalues --   -0.61172  -0.60410  -0.59492  -0.59478  -0.59460
 Alpha  occ. eigenvalues --   -0.59425  -0.59376  -0.58596  -0.57996  -0.57972
 Alpha  occ. eigenvalues --   -0.57878  -0.57089  -0.57046  -0.57017  -0.56301
 Alpha  occ. eigenvalues --   -0.56278  -0.56118  -0.55700  -0.54860  -0.54804
 Alpha  occ. eigenvalues --   -0.54769  -0.54543  -0.54240  -0.54109  -0.54087
 Alpha  occ. eigenvalues --   -0.54015  -0.53957  -0.53230  -0.53191  -0.53061
 Alpha  occ. eigenvalues --   -0.53027  -0.52902  -0.52695  -0.52658  -0.52633
 Alpha  occ. eigenvalues --   -0.52579  -0.52522  -0.52464  -0.52460  -0.51603
 Alpha  occ. eigenvalues --   -0.51578  -0.51337  -0.51312  -0.51271  -0.51230
 Alpha  occ. eigenvalues --   -0.51176  -0.51168  -0.50950  -0.50755  -0.50575
 Alpha  occ. eigenvalues --   -0.50557  -0.50551  -0.49872  -0.49851  -0.49299
 Alpha  occ. eigenvalues --   -0.49287  -0.49255  -0.49219  -0.49161  -0.49069
 Alpha  occ. eigenvalues --   -0.48899  -0.48085  -0.48032  -0.47931  -0.47728
 Alpha  occ. eigenvalues --   -0.47385  -0.47285  -0.47243  -0.46999  -0.46924
 Alpha  occ. eigenvalues --   -0.46814  -0.46555  -0.46486  -0.46468  -0.46200
 Alpha  occ. eigenvalues --   -0.46147  -0.46110  -0.45605  -0.45097  -0.44917
 Alpha  occ. eigenvalues --   -0.44875  -0.44209  -0.44148  -0.44037  -0.43541
 Alpha  occ. eigenvalues --   -0.43273  -0.43221  -0.43111  -0.43094  -0.43060
 Alpha  occ. eigenvalues --   -0.42698  -0.42674  -0.42652  -0.42586  -0.42578
 Alpha  occ. eigenvalues --   -0.42495  -0.42454  -0.42437  -0.42278  -0.42261
 Alpha  occ. eigenvalues --   -0.42243  -0.42019  -0.41907  -0.41849  -0.41829
 Alpha  occ. eigenvalues --   -0.41190  -0.41150  -0.41136  -0.41009  -0.40543
 Alpha  occ. eigenvalues --   -0.40512  -0.40493  -0.40398  -0.39444  -0.39426
 Alpha  occ. eigenvalues --   -0.36983  -0.32549  -0.29118  -0.25007  -0.24985
 Alpha  occ. eigenvalues --   -0.23588
 Alpha virt. eigenvalues --   -0.09595  -0.09360  -0.08549  -0.08482  -0.07077
 Alpha virt. eigenvalues --   -0.07047  -0.06935  -0.04604  -0.04246  -0.04201
 Alpha virt. eigenvalues --   -0.03732  -0.03520  -0.03470  -0.03266  -0.03162

 Mulliken charges:
               1
     1  Cl  -0.902962
     2  C   -0.078542
     3  C    0.047427
     4  C   -0.077742
     5  C   -0.033885
     6  C   -0.033405
     7  C   -0.050146
     8  H    0.030872
     9  H    0.030053
    10  H    0.041406
    11  H    0.037193
    12  H    0.040266
    13  C   -0.121022
    14  C    0.020313
    15  H    0.022314
    16  H    0.039360
    17  H    0.025271
    18  O   -0.664022
    19  O   -0.663827
    20  O   -0.655469
    21  O   -0.664226
    22  W    1.737105
    23  W    1.678260
    24  W    1.687735
    25  W    1.698267
    26  W    1.678177
    27  W    1.730565
    28  W    1.622451
    29  W    1.689365
    30  O   -0.319997
    31  O   -0.365626
    32  O   -0.367592
    33  O   -0.360771
    34  O   -0.666054
    35  O   -0.671770
    36  O   -0.662217
    37  O   -0.665317
    38  O   -0.368460
    39  O   -0.365200
    40  O   -0.297251
    41  O   -0.365282
    42  O   -0.670974
    43  O   -0.664355
    44  O   -0.662259
    45  O   -0.666385
    46  O   -0.369465
    47  O   -0.320511
    48  O   -0.362492
    49  O   -0.362343
    50  W    1.677006
    51  W    1.682159
    52  W    1.685981
    53  W    1.688278
    54  O   -0.725773
    55  O   -0.709601
    56  O   -0.726760
    57  O   -0.723952
    58  O   -0.707821
    59  O   -0.728237
    60  O   -0.725882
    61  O   -0.722070
    62  O   -0.725758
    63  O   -0.709245
    64  O   -0.724825
    65  O   -0.727332
    66  O   -0.803076
    67  O   -0.802246
    68  O   -0.798558
    69  O   -0.809518
    70  K    0.863269
    71  K    0.863925
    72  K    0.860476
    73  V    1.192725
 Sum of Mulliken charges =  -1.00000

 Dipole moment (field-independent basis, Debye):
    X=             50.5897    Y=            -51.4414    Z=            -38.6740  Tot=             81.8610
 Quadrupole moment (field-independent basis, Debye-Ang):
   XX=          -1045.9676   YY=           -892.1071   ZZ=           -913.4382
   XY=            451.6033   XZ=            453.0790   YZ=           -480.6670

 Normal termination of Gaussian 16 at Sun Jun  2 15:02:42 2024.
