 Gaussian 16, Revision C.01,
 Gaussian 16:  ES64L-G16RevC.01  3-Jul-2019

 ----------------------------------------------------------------------
 # def2svp wb97xd scrf=(smd,solvent=acetonitrile) g09default scf=(xqc,m
 axcycle=64) force guess=read nosymm
 ----------------------------------------------------------------------

 ----------
 Title Card
 ----------
 Symbolic Z-matrix:
 Charge = -1 Multiplicity = 1

                          Input orientation:
 ---------------------------------------------------------------------
 Center     Atomic      Atomic             Coordinates (Angstroms)
 Number     Number       Type             X           Y           Z
 ---------------------------------------------------------------------
      1         17           0       -9.686752    8.280935   10.554842
      2          6           0       -8.338601    4.242925   12.217614
      3          6           0       -9.135168    3.930004   11.100146
      4          6           0      -10.044880    2.861428   11.213931
      5          6           0      -10.203725    2.177836   12.414801
      6          6           0       -9.443275    2.535861   13.528984
      7          6           0       -8.494156    3.554383   13.417203
      8          1           0       -7.581933    5.027651   12.147072
      9          1           0      -10.637323    2.571191   10.341676
     10          1           0      -10.921421    1.356673   12.482260
     11          1           0       -9.577817    2.011751   14.477798
     12          1           0       -7.869782    3.813728   14.275867
     13          6           0       -9.066335    4.670617    9.838753
     14          6           0       -8.386388    5.813824    9.608671
     15          1           0       -9.648048    4.238242    9.016954
     16          1           0       -8.380176    6.256288    8.610463
     17          1           0       -7.762149    6.298489   10.359528
     18          8           0       -0.976506   -1.797250    7.467119
     19          8           0       -8.395747   -1.333788    7.461228
     20          8           0       -7.024302    1.348427   10.472092
     21          8           0       -2.334141   -4.394746   10.554321
     22         74           0       -3.405053    0.688574    6.473845
     23         74           0       -5.990305   -3.817986    6.558695
     24         74           0       -3.613146    0.870449   11.420724
     25         74           0       -5.762068   -3.861285   11.481605
     26         74           0       -2.429961   -2.592887    6.403280
     27         74           0       -6.941811   -0.532833    6.372884
     28         74           0       -6.820637   -0.248478   11.559417
     29         74           0       -2.542399   -2.734234   11.601752
     30          8           0       -3.169749    1.869976    5.291376
     31          8           0       -6.123389   -5.069413    5.417428
     32          8           0       -2.686927    1.713164   12.570362
     33          8           0       -6.680745   -4.660847   12.665460
     34          8           0       -2.656771   -0.916299    5.587339
     35          8           0       -6.702580   -2.267229    5.621248
     36          8           0       -5.311285    0.551183   12.360292
     37          8           0       -4.049631   -3.529442   12.405591
     38          8           0        0.308311   -0.011733    9.282599
     39          8           0       -9.693731   -3.042184    9.329177
     40          8           0       -6.344002    3.430958    8.664878
     41          8           0       -3.009637   -6.492027    8.744919
     42          8           0       -1.782810    0.749904    7.473636
     43          8           0       -7.597949   -3.883789    7.542164
     44          8           0       -4.493385    2.197050   10.427855
     45          8           0       -4.874058   -5.230316   10.528364
     46          8           0       -1.600316   -3.540511    5.260012
     47          8           0       -7.821289    0.279864    5.182526
     48          8           0       -8.046210   -0.168787   12.733420
     49          8           0       -1.302373   -2.856125   12.757085
     50         74           0       -1.248838   -0.529344    8.837024
     51         74           0       -8.134822   -2.539518    8.874407
     52         74           0       -5.868927    1.858785    9.043974
     53         74           0       -3.494473   -4.917651    9.164569
     54          8           0       -4.211192   -3.111305    6.071505
     55          8           0       -5.152798   -0.061618    6.014707
     56          8           0       -6.170195   -1.997040   11.907148
     57          8           0       -3.170539   -0.986694   11.926019
     58          8           0       -4.354014    1.580581    7.830311
     59          8           0       -5.006128   -4.680711    7.922401
     60          8           0       -2.324529    0.567629   10.079826
     61          8           0       -7.047387   -3.614647   10.130725
     62          8           0       -2.568166   -3.909161    7.867900
     63          8           0       -6.809390    0.794763    7.802755
     64          8           0       -7.825961   -1.176840   10.138278
     65          8           0       -1.559376   -1.868487   10.138805
     66          8           0       -3.355540   -1.158195    8.007894
     67          8           0       -6.020753   -1.958087    8.033770
     68          8           0       -5.116324   -0.207619    9.943618
     69          8           0       -4.235394   -2.846589    9.974305
     70         19           0       -3.212039   -6.134595    5.645497
     71         19           0       -0.108537    0.053342   12.339451
     72         19           0       -9.286796   -2.835516   12.433496
     73         23           0       -4.684130   -1.539081    8.988239
 ---------------------------------------------------------------------

 SCF Done:  E(UwB97XD) =  -7327.70169602     A.U. after   38 cycles

 Alpha  occ. eigenvalues --  -19.24746 -18.94344 -18.93241 -18.93235 -13.36544
 Alpha  occ. eigenvalues --  -13.36465 -13.36445 -10.69471 -10.69467 -10.69465
 Alpha  occ. eigenvalues --  -10.69392 -10.69387 -10.69386 -10.69373 -10.69369
 Alpha  occ. eigenvalues --  -10.69363 -10.32969 -10.32138 -10.31959 -10.31002
 Alpha  occ. eigenvalues --  -10.30972 -10.30956 -10.30558 -10.30485  -9.52790
 Alpha  occ. eigenvalues --   -7.27677  -7.27327  -7.27322  -3.21134  -3.21095
 Alpha  occ. eigenvalues --   -3.21068  -3.21046  -3.21045  -3.21025  -3.21021
 Alpha  occ. eigenvalues --   -3.21014  -3.21005  -3.20889  -3.20879  -3.20848
 Alpha  occ. eigenvalues --   -2.78985  -1.85355  -1.85295  -1.85285  -1.85258
 Alpha  occ. eigenvalues --   -1.85144  -1.85078  -1.85064  -1.85046  -1.85031
 Alpha  occ. eigenvalues --   -1.85020  -1.85009  -1.84952  -1.84395  -1.84286
 Alpha  occ. eigenvalues --   -1.84269  -1.84255  -1.84222  -1.84212  -1.84153
 Alpha  occ. eigenvalues --   -1.84138  -1.84112  -1.84103  -1.84076  -1.84063
 Alpha  occ. eigenvalues --   -1.83965  -1.83924  -1.83888  -1.83881  -1.83865
 Alpha  occ. eigenvalues --   -1.83834  -1.83812  -1.83802  -1.83794  -1.83698
 Alpha  occ. eigenvalues --   -1.83688  -1.83681  -1.82128  -1.81780  -1.81774
 Alpha  occ. eigenvalues --   -1.50244  -1.50169  -1.50155  -1.08632  -1.07007
 Alpha  occ. eigenvalues --   -1.06965  -1.06924  -1.06012  -1.06009  -1.05978
 Alpha  occ. eigenvalues --   -1.04576  -1.04571  -1.04558  -1.03992  -1.03979
 Alpha  occ. eigenvalues --   -1.03754  -1.03386  -1.03357  -1.03336  -1.03026
 Alpha  occ. eigenvalues --   -1.02992  -1.02264  -1.02232  -1.02223  -1.02090
 Alpha  occ. eigenvalues --   -1.02006  -1.01975  -1.01907  -1.01887  -1.01771
 Alpha  occ. eigenvalues --   -1.01754  -1.01737  -1.01622  -1.01585  -1.01564
 Alpha  occ. eigenvalues --   -1.01293  -1.00830  -1.00747  -1.00683  -1.00678
 Alpha  occ. eigenvalues --   -1.00047  -0.99993  -0.99931  -0.96151  -0.89207
 Alpha  occ. eigenvalues --   -0.85685  -0.85612  -0.85605  -0.85535  -0.85516
 Alpha  occ. eigenvalues --   -0.85459  -0.85459  -0.85453  -0.85415  -0.84243
 Alpha  occ. eigenvalues --   -0.82450  -0.81167  -0.71896  -0.69596  -0.65045
 Alpha  occ. eigenvalues --   -0.62337  -0.61722  -0.61666  -0.61642  -0.60539
 Alpha  occ. eigenvalues --   -0.58975  -0.58954  -0.58933  -0.58878  -0.58815
 Alpha  occ. eigenvalues --   -0.58807  -0.58777  -0.58738  -0.58559  -0.57399
 Alpha  occ. eigenvalues --   -0.57360  -0.57344  -0.57044  -0.56711  -0.56514
 Alpha  occ. eigenvalues --   -0.56468  -0.56425  -0.56048  -0.55901  -0.55364
 Alpha  occ. eigenvalues --   -0.55351  -0.55316  -0.54442  -0.54153  -0.54134
 Alpha  occ. eigenvalues --   -0.53935  -0.53725  -0.53682  -0.53663  -0.52708
 Alpha  occ. eigenvalues --   -0.52630  -0.52604  -0.52498  -0.52461  -0.51483
 Alpha  occ. eigenvalues --   -0.51467  -0.51442  -0.51348  -0.51292  -0.50756
 Alpha  occ. eigenvalues --   -0.50558  -0.50534  -0.50480  -0.50390  -0.50315
 Alpha  occ. eigenvalues --   -0.50290  -0.50047  -0.50004  -0.49979  -0.49731
 Alpha  occ. eigenvalues --   -0.49632  -0.49588  -0.49495  -0.49470  -0.49289
 Alpha  occ. eigenvalues --   -0.49243  -0.49205  -0.49151  -0.49101  -0.49036
 Alpha  occ. eigenvalues --   -0.48694  -0.48528  -0.48509  -0.48451  -0.47645
 Alpha  occ. eigenvalues --   -0.47616  -0.47129  -0.46479  -0.46049  -0.46027
 Alpha  occ. eigenvalues --   -0.45895  -0.45798  -0.45753  -0.45616  -0.45220
 Alpha  occ. eigenvalues --   -0.45139  -0.45136  -0.44764  -0.44583  -0.44491
 Alpha  occ. eigenvalues --   -0.44477  -0.44446  -0.44302  -0.44206  -0.44167
 Alpha  occ. eigenvalues --   -0.43475  -0.43057  -0.42550  -0.42512  -0.42431
 Alpha  occ. eigenvalues --   -0.42340  -0.42192  -0.42170  -0.42157  -0.41636
 Alpha  occ. eigenvalues --   -0.41618  -0.41590  -0.41027  -0.40978  -0.40760
 Alpha  occ. eigenvalues --   -0.40757  -0.40721  -0.40351  -0.40336  -0.40307
 Alpha  occ. eigenvalues --   -0.40195  -0.40156  -0.40145  -0.40111  -0.39845
 Alpha  occ. eigenvalues --   -0.39365  -0.39263  -0.39244  -0.39124  -0.39071
 Alpha  occ. eigenvalues --   -0.38898  -0.38867  -0.38810  -0.38776  -0.38697
 Alpha  occ. eigenvalues --   -0.38300  -0.38260  -0.38212  -0.37981  -0.37212
 Alpha  occ. eigenvalues --   -0.37173  -0.34905  -0.34876  -0.33625  -0.30239
 Alpha  occ. eigenvalues --   -0.25987
 Alpha virt. eigenvalues --   -0.12305  -0.06422  -0.06356  -0.04921  -0.04880
 Alpha virt. eigenvalues --   -0.04755  -0.01534  -0.01422  -0.01377  -0.01174
 Alpha virt. eigenvalues --   -0.00940  -0.00927  -0.00902  -0.00166  -0.00104

  Beta  occ. eigenvalues -- -197.11102-129.99131-129.99054-129.99040-101.62790
  Beta  occ. eigenvalues --  -22.43502 -19.28544 -19.28508 -19.28455 -19.28400
  Beta  occ. eigenvalues --  -19.28384 -19.28365 -19.28351 -19.28347 -19.28338
  Beta  occ. eigenvalues --  -19.28281 -19.28254 -19.28160 -19.26950 -19.26910
  Beta  occ. eigenvalues --  -19.26905 -19.26863 -19.26859 -19.26826 -19.26822
  Beta  occ. eigenvalues --  -19.26816 -19.26815 -19.26813 -19.26793 -19.26789
  Beta  occ. eigenvalues --  -19.26763 -19.26761 -19.26759 -19.26756 -19.26752
  Beta  occ. eigenvalues --  -19.26752 -19.26730 -19.26726 -19.26716 -19.26699
  Beta  occ. eigenvalues --  -19.26648 -19.26592 -19.24803 -19.24782 -19.24745
  Beta  occ. eigenvalues --  -19.24720 -18.93998 -18.91778 -18.91770 -13.36544
  Beta  occ. eigenvalues --  -13.36465 -13.36445 -10.69471 -10.69467 -10.69465
  Beta  occ. eigenvalues --  -10.69392 -10.69387 -10.69386 -10.69373 -10.69369
  Beta  occ. eigenvalues --  -10.69363 -10.33231 -10.32258 -10.31912 -10.31101
  Beta  occ. eigenvalues --  -10.31091 -10.31052 -10.30502 -10.30428  -9.53247
  Beta  occ. eigenvalues --   -7.29114  -7.27639  -7.27635  -3.21134  -3.21088
  Beta  occ. eigenvalues --   -3.21068  -3.21044  -3.21041  -3.21019  -3.21016
  Beta  occ. eigenvalues --   -3.21008  -3.20999  -3.20889  -3.20875  -3.20843
  Beta  occ. eigenvalues --   -2.74917  -1.85350  -1.85290  -1.85280  -1.85249
  Beta  occ. eigenvalues --   -1.85138  -1.85072  -1.85059  -1.85041  -1.85022
  Beta  occ. eigenvalues --   -1.85012  -1.85002  -1.84944  -1.84392  -1.84283
  Beta  occ. eigenvalues --   -1.84266  -1.84252  -1.84219  -1.84208  -1.84150
  Beta  occ. eigenvalues --   -1.84135  -1.84109  -1.84100  -1.84073  -1.84060
  Beta  occ. eigenvalues --   -1.83963  -1.83921  -1.83886  -1.83878  -1.83862
  Beta  occ. eigenvalues --   -1.83832  -1.83810  -1.83800  -1.83790  -1.83696
  Beta  occ. eigenvalues --   -1.83685  -1.83678  -1.80787  -1.76024  -1.76010
  Beta  occ. eigenvalues --   -1.50244  -1.50169  -1.50155  -1.08614  -1.06988
  Beta  occ. eigenvalues --   -1.06942  -1.06897  -1.06010  -1.06006  -1.05977
  Beta  occ. eigenvalues --   -1.04578  -1.04571  -1.04557  -1.03994  -1.03979
  Beta  occ. eigenvalues --   -1.03687  -1.03356  -1.03317  -1.03299  -1.03025
  Beta  occ. eigenvalues --   -1.02985  -1.02246  -1.02207  -1.02206  -1.02081
  Beta  occ. eigenvalues --   -1.02001  -1.01963  -1.01902  -1.01873  -1.01767
  Beta  occ. eigenvalues --   -1.01751  -1.01734  -1.01619  -1.01583  -1.01548
  Beta  occ. eigenvalues --   -1.01294  -1.00791  -1.00746  -1.00683  -1.00679
  Beta  occ. eigenvalues --   -0.99912  -0.99863  -0.99815  -0.96369  -0.89850
  Beta  occ. eigenvalues --   -0.85685  -0.85612  -0.85605  -0.85534  -0.85516
  Beta  occ. eigenvalues --   -0.85459  -0.85459  -0.85453  -0.85415  -0.84809
  Beta  occ. eigenvalues --   -0.84336  -0.82703  -0.72145  -0.69713  -0.65282
  Beta  occ. eigenvalues --   -0.62337  -0.61721  -0.61666  -0.61642  -0.60740
  Beta  occ. eigenvalues --   -0.58971  -0.58953  -0.58931  -0.58805  -0.58793
  Beta  occ. eigenvalues --   -0.58771  -0.58750  -0.58681  -0.58560  -0.57361
  Beta  occ. eigenvalues --   -0.57216  -0.57174  -0.56999  -0.56880  -0.56518
  Beta  occ. eigenvalues --   -0.56435  -0.56389  -0.55857  -0.55643  -0.55345
  Beta  occ. eigenvalues --   -0.55334  -0.55316  -0.54640  -0.54145  -0.54126
  Beta  occ. eigenvalues --   -0.53926  -0.53686  -0.53653  -0.53622  -0.52759
  Beta  occ. eigenvalues --   -0.52650  -0.52592  -0.52478  -0.52456  -0.51457
  Beta  occ. eigenvalues --   -0.51442  -0.51434  -0.51288  -0.51217  -0.50939
  Beta  occ. eigenvalues --   -0.50539  -0.50474  -0.50455  -0.50330  -0.50254
  Beta  occ. eigenvalues --   -0.50167  -0.50016  -0.50001  -0.49946  -0.49678
  Beta  occ. eigenvalues --   -0.49608  -0.49552  -0.49484  -0.49459  -0.49288
  Beta  occ. eigenvalues --   -0.49222  -0.49202  -0.49125  -0.49088  -0.49016
  Beta  occ. eigenvalues --   -0.48688  -0.48524  -0.48509  -0.48444  -0.47781
  Beta  occ. eigenvalues --   -0.47578  -0.47556  -0.45988  -0.45907  -0.45867
  Beta  occ. eigenvalues --   -0.45826  -0.45672  -0.45566  -0.45220  -0.45161
  Beta  occ. eigenvalues --   -0.45139  -0.45047  -0.44764  -0.44581  -0.44476
  Beta  occ. eigenvalues --   -0.44425  -0.44414  -0.44283  -0.44185  -0.44153
  Beta  occ. eigenvalues --   -0.43469  -0.43164  -0.42490  -0.42459  -0.42398
  Beta  occ. eigenvalues --   -0.42269  -0.42242  -0.42150  -0.42132  -0.41620
  Beta  occ. eigenvalues --   -0.41598  -0.41567  -0.41343  -0.41033  -0.40934
  Beta  occ. eigenvalues --   -0.40749  -0.40690  -0.40652  -0.40336  -0.40327
  Beta  occ. eigenvalues --   -0.40290  -0.40145  -0.40133  -0.40121  -0.39788
  Beta  occ. eigenvalues --   -0.39615  -0.39364  -0.39168  -0.39099  -0.39084
  Beta  occ. eigenvalues --   -0.38894  -0.38839  -0.38818  -0.38767  -0.38715
  Beta  occ. eigenvalues --   -0.38662  -0.38299  -0.38257  -0.38209  -0.37861
  Beta  occ. eigenvalues --   -0.37214  -0.37167  -0.35863  -0.35829  -0.33895
  Beta  occ. eigenvalues --   -0.30898
  Beta virt. eigenvalues --   -0.06421  -0.06356  -0.04920  -0.04879  -0.04755
  Beta virt. eigenvalues --   -0.01530  -0.01418  -0.01372  -0.01168  -0.00935
  Beta virt. eigenvalues --   -0.00923  -0.00897  -0.00155  -0.00091  -0.00054

 Mulliken charges and spin densities:
               1          2
     1  Cl  -0.340549  -0.620560
     2  C   -0.035233  -0.091893
     3  C    0.012996   0.053516
     4  C   -0.034968  -0.087911
     5  C   -0.031595   0.056144
     6  C    0.006786  -0.111448
     7  C   -0.048383   0.056211
     8  H    0.050819   0.004045
     9  H    0.050863   0.003775
    10  H    0.055836  -0.001992
    11  H    0.056653   0.004897
    12  H    0.054467  -0.001980
    13  C    0.003616  -0.245967
    14  C   -0.046586  -0.026470
    15  H    0.075947   0.010253
    16  H    0.095283   0.001924
    17  H    0.086744  -0.000755
    18  O   -0.673005  -0.000570
    19  O   -0.672711  -0.000530
    20  O   -0.666822  -0.001639
    21  O   -0.673305  -0.000543
    22  W    1.720594   0.000360
    23  W    1.664021   0.000479
    24  W    1.675009   0.000169
    25  W    1.684215   0.000202
    26  W    1.664565   0.002688
    27  W    1.712978   0.002408
    28  W    1.614334   0.003348
    29  W    1.675002   0.002801
    30  O   -0.349951  -0.000536
    31  O   -0.394014  -0.000565
    32  O   -0.396018  -0.000608
    33  O   -0.389522  -0.000564
    34  O   -0.674395  -0.000289
    35  O   -0.679289  -0.000041
    36  O   -0.671382  -0.000145
    37  O   -0.674255  -0.000217
    38  O   -0.398238   0.002078
    39  O   -0.395322   0.002108
    40  O   -0.340170   0.000116
    41  O   -0.395335   0.002074
    42  O   -0.678768   0.000030
    43  O   -0.673072   0.000124
    44  O   -0.670767   0.000248
    45  O   -0.674902   0.000072
    46  O   -0.399344   0.002270
    47  O   -0.352264   0.002178
    48  O   -0.395495   0.001840
    49  O   -0.392517   0.002346
    50  W    1.662954   0.002722
    51  W    1.667764   0.002616
    52  W    1.678832   0.003804
    53  W    1.673683   0.002561
    54  O   -0.723717   0.000107
    55  O   -0.707858   0.000021
    56  O   -0.723370   0.000165
    57  O   -0.722111   0.000065
    58  O   -0.705746   0.000056
    59  O   -0.725406   0.000145
    60  O   -0.723324   0.000198
    61  O   -0.719722   0.000187
    62  O   -0.724282  -0.000187
    63  O   -0.708087  -0.000061
    64  O   -0.723826  -0.000214
    65  O   -0.725258  -0.000219
    66  O   -0.885591   0.005112
    67  O   -0.885583   0.007180
    68  O   -0.881874   0.006857
    69  O   -0.889710   0.006343
    70  K    0.849641   0.000188
    71  K    0.850640   0.000208
    72  K    0.846760   0.000213
    73  V    1.202639   0.938452
 Sum of Mulliken charges =  -1.00000  -0.00000

 Dipole moment (field-independent basis, Debye):
    X=             28.3679    Y=            -13.5830    Z=            -30.5327  Tot=             43.8347
 Quadrupole moment (field-independent basis, Debye-Ang):
   XX=           -762.2443   YY=           -709.9226   ZZ=           -777.8847
   XY=            127.2474   XZ=            176.4658   YZ=            -92.0385

 Normal termination of Gaussian 16 at Sun Jun  2 14:52:49 2024.
