 Gaussian 16, Revision C.01,
 Gaussian 16:  ES64L-G16RevC.01  3-Jul-2019

 ----------------------------------------------------------------------
 # def2svp wb97xd scrf=(smd,solvent=acetonitrile) g09default scf=(xqc,m
 axcycle=64) force guess=read nosymm
 ----------------------------------------------------------------------

 ----------
 Title Card
 ----------
 Symbolic Z-matrix:
 Charge = -1 Multiplicity = 1

                          Input orientation:
 ---------------------------------------------------------------------
 Center     Atomic      Atomic             Coordinates (Angstroms)
 Number     Number       Type             X           Y           Z
 ---------------------------------------------------------------------
      1         17           0       -9.678895    8.280624   10.553536
      2          6           0       -8.339434    4.243971   12.217099
      3          6           0       -9.136004    3.930322   11.099813
      4          6           0      -10.045991    2.862123   11.214193
      5          6           0      -10.203983    2.178354   12.415057
      6          6           0       -9.442580    2.535851   13.528573
      7          6           0       -8.494139    3.555067   13.416819
      8          1           0       -7.583945    5.029724   12.146619
      9          1           0      -10.639806    2.573160   10.342462
     10          1           0      -10.922096    1.357482   12.482784
     11          1           0       -9.575847    2.010980   14.477215
     12          1           0       -7.869860    3.814841   14.275292
     13          6           0       -9.068535    4.671039    9.838551
     14          6           0       -8.391722    5.816465    9.610042
     15          1           0       -9.649850    4.238307    9.016639
     16          1           0       -8.388691    6.262377    8.613529
     17          1           0       -7.768602    6.300991   10.361736
     18          8           0       -0.976150   -1.798150    7.467054
     19          8           0       -8.394722   -1.333615    7.461353
     20          8           0       -7.023524    1.348322   10.472130
     21          8           0       -2.334166   -4.395484   10.554429
     22         74           0       -3.404368    0.688668    6.474160
     23         74           0       -5.989947   -3.818190    6.558429
     24         74           0       -3.612667    0.869890   11.420188
     25         74           0       -5.761790   -3.861806   11.481905
     26         74           0       -2.429617   -2.593031    6.403408
     27         74           0       -6.941145   -0.532983    6.372623
     28         74           0       -6.819886   -0.248740   11.559455
     29         74           0       -2.542375   -2.735278   11.601746
     30          8           0       -3.169350    1.869778    5.291552
     31          8           0       -6.122957   -5.069540    5.417099
     32          8           0       -2.685844    1.712108   12.569651
     33          8           0       -6.680914   -4.661301   12.665560
     34          8           0       -2.656800   -0.916675    5.587676
     35          8           0       -6.702090   -2.267379    5.621051
     36          8           0       -5.310476    0.550924   12.360135
     37          8           0       -4.049570   -3.530217   12.406014
     38          8           0        0.309143   -0.012809    9.282027
     39          8           0       -9.693082   -3.042444    9.328820
     40          8           0       -6.343679    3.430903    8.664625
     41          8           0       -3.010250   -6.492676    8.744499
     42          8           0       -1.782119    0.749051    7.473501
     43          8           0       -7.597697   -3.883691    7.541856
     44          8           0       -4.492653    2.196565   10.427514
     45          8           0       -4.873857   -5.230914   10.528845
     46          8           0       -1.600044   -3.539898    5.259548
     47          8           0       -7.820034    0.279858    5.181999
     48          8           0       -8.045012   -0.168591   12.733866
     49          8           0       -1.302761   -2.856823   12.757622
     50         74           0       -1.248147   -0.530334    8.837208
     51         74           0       -8.134139   -2.539769    8.874364
     52         74           0       -5.868779    1.858795    9.043743
     53         74           0       -3.494750   -4.918224    9.164483
     54          8           0       -4.211020   -3.111742    6.071985
     55          8           0       -5.152093   -0.062102    6.015343
     56          8           0       -6.169638   -1.997334   11.907169
     57          8           0       -3.170875   -0.987701   11.924861
     58          8           0       -4.353371    1.580335    7.830576
     59          8           0       -5.006426   -4.681032    7.922770
     60          8           0       -2.323880    0.566692   10.079351
     61          8           0       -7.046676   -3.614762   10.130531
     62          8           0       -2.568289   -3.909464    7.868221
     63          8           0       -6.808903    0.794783    7.802696
     64          8           0       -7.825281   -1.176966   10.138361
     65          8           0       -1.558625   -1.869462   10.138843
     66          8           0       -3.355105   -1.158674    8.008504
     67          8           0       -6.019874   -1.958522    8.033784
     68          8           0       -5.115841   -0.208170    9.943454
     69          8           0       -4.235409   -2.847214    9.974484
     70         19           0       -3.212108   -6.134216    5.645756
     71         19           0       -0.109306    0.052334   12.337952
     72         19           0       -9.286201   -2.833454   12.432644
     73         23           0       -4.683662   -1.539716    8.988498
 ---------------------------------------------------------------------

 SCF Done:  E(RwB97XD) =  -7327.70170357     A.U. after   10 cycles

 Alpha  occ. eigenvalues -- -197.29590-130.00105-130.00079-129.99975-101.48236
 Alpha  occ. eigenvalues --  -22.62698 -19.33683 -19.33680 -19.33676 -19.33651
 Alpha  occ. eigenvalues --  -19.30728 -19.30684 -19.30682 -19.30679 -19.30670
 Alpha  occ. eigenvalues --  -19.30667 -19.30661 -19.30628 -19.30546 -19.30380
 Alpha  occ. eigenvalues --  -19.30346 -19.30182 -19.29321 -19.29307 -19.29305
 Alpha  occ. eigenvalues --  -19.29282 -19.29271 -19.29255 -19.29222 -19.29195
 Alpha  occ. eigenvalues --  -19.29185 -19.29171 -19.29164 -19.29148 -19.29130
 Alpha  occ. eigenvalues --  -19.29099 -19.29091 -19.29073 -19.29070 -19.29057
 Alpha  occ. eigenvalues --  -19.29050 -19.28995 -19.28980 -19.28963 -19.28921
 Alpha  occ. eigenvalues --  -19.28849 -19.11657 -19.11649 -19.11640 -13.37511
 Alpha  occ. eigenvalues --  -13.37483 -13.37374 -10.70441 -10.70434 -10.70432
 Alpha  occ. eigenvalues --  -10.70412 -10.70405 -10.70404 -10.70304 -10.70298
 Alpha  occ. eigenvalues --  -10.70292 -10.29887 -10.29354 -10.29296 -10.29084
 Alpha  occ. eigenvalues --  -10.28999 -10.28997 -10.28149 -10.27629  -9.38705
 Alpha  occ. eigenvalues --   -7.13530  -7.13484  -7.13476  -3.23322  -3.23317
 Alpha  occ. eigenvalues --   -3.23309  -3.23298  -3.23296  -3.23282  -3.23270
 Alpha  occ. eigenvalues --   -3.23259  -3.23226  -3.22987  -3.22979  -3.22794
 Alpha  occ. eigenvalues --   -2.91901  -1.94271  -1.94236  -1.94227  -1.87722
 Alpha  occ. eigenvalues --   -1.87675  -1.87660  -1.87630  -1.87488  -1.87473
 Alpha  occ. eigenvalues --   -1.87468  -1.87452  -1.87426  -1.87288  -1.87255
 Alpha  occ. eigenvalues --   -1.87103  -1.86629  -1.86511  -1.86502  -1.86485
 Alpha  occ. eigenvalues --   -1.86460  -1.86439  -1.86345  -1.86336  -1.86318
 Alpha  occ. eigenvalues --   -1.86299  -1.86294  -1.86264  -1.86150  -1.86137
 Alpha  occ. eigenvalues --   -1.86128  -1.86118  -1.86049  -1.86031  -1.85993
 Alpha  occ. eigenvalues --   -1.85928  -1.85912  -1.85812  -1.85720  -1.85673
 Alpha  occ. eigenvalues --   -1.51197  -1.51173  -1.51071  -1.13089  -1.11323
 Alpha  occ. eigenvalues --   -1.11243  -1.11235  -1.08974  -1.08535  -1.08492
 Alpha  occ. eigenvalues --   -1.08310  -1.07572  -1.07518  -1.07504  -1.06899
 Alpha  occ. eigenvalues --   -1.06887  -1.06869  -1.06326  -1.06309  -1.05310
 Alpha  occ. eigenvalues --   -1.05299  -1.04976  -1.04971  -1.04965  -1.04189
 Alpha  occ. eigenvalues --   -1.04180  -1.04168  -1.04023  -1.04005  -1.03992
 Alpha  occ. eigenvalues --   -1.03936  -1.03910  -1.03893  -1.03761  -1.03730
 Alpha  occ. eigenvalues --   -1.03613  -1.03547  -1.03308  -1.03262  -1.03114
 Alpha  occ. eigenvalues --   -1.03100  -1.03020  -1.02958  -0.94382  -0.86664
 Alpha  occ. eigenvalues --   -0.86642  -0.86546  -0.86509  -0.86474  -0.86458
 Alpha  occ. eigenvalues --   -0.86449  -0.86445  -0.86359  -0.86322  -0.82817
 Alpha  occ. eigenvalues --   -0.79788  -0.71456  -0.69700  -0.68031  -0.64614
 Alpha  occ. eigenvalues --   -0.63986  -0.63915  -0.63907  -0.63339  -0.63319
 Alpha  occ. eigenvalues --   -0.63186  -0.62975  -0.62702  -0.62609  -0.62024
 Alpha  occ. eigenvalues --   -0.61630  -0.61620  -0.61523  -0.61255  -0.61242
 Alpha  occ. eigenvalues --   -0.61173  -0.60411  -0.59491  -0.59477  -0.59459
 Alpha  occ. eigenvalues --   -0.59424  -0.59375  -0.58590  -0.57998  -0.57972
 Alpha  occ. eigenvalues --   -0.57878  -0.57087  -0.57044  -0.57016  -0.56300
 Alpha  occ. eigenvalues --   -0.56278  -0.56119  -0.55701  -0.54860  -0.54806
 Alpha  occ. eigenvalues --   -0.54770  -0.54539  -0.54240  -0.54109  -0.54089
 Alpha  occ. eigenvalues --   -0.54016  -0.53957  -0.53232  -0.53192  -0.53063
 Alpha  occ. eigenvalues --   -0.53030  -0.52903  -0.52697  -0.52660  -0.52635
 Alpha  occ. eigenvalues --   -0.52583  -0.52519  -0.52465  -0.52459  -0.51605
 Alpha  occ. eigenvalues --   -0.51580  -0.51334  -0.51310  -0.51269  -0.51229
 Alpha  occ. eigenvalues --   -0.51173  -0.51167  -0.50947  -0.50757  -0.50578
 Alpha  occ. eigenvalues --   -0.50561  -0.50554  -0.49872  -0.49853  -0.49299
 Alpha  occ. eigenvalues --   -0.49286  -0.49254  -0.49219  -0.49161  -0.49070
 Alpha  occ. eigenvalues --   -0.48899  -0.48084  -0.48031  -0.47930  -0.47720
 Alpha  occ. eigenvalues --   -0.47386  -0.47285  -0.47244  -0.46999  -0.46924
 Alpha  occ. eigenvalues --   -0.46813  -0.46554  -0.46487  -0.46469  -0.46198
 Alpha  occ. eigenvalues --   -0.46146  -0.46110  -0.45602  -0.45098  -0.44917
 Alpha  occ. eigenvalues --   -0.44875  -0.44210  -0.44147  -0.44036  -0.43535
 Alpha  occ. eigenvalues --   -0.43273  -0.43221  -0.43112  -0.43095  -0.43061
 Alpha  occ. eigenvalues --   -0.42698  -0.42674  -0.42653  -0.42587  -0.42578
 Alpha  occ. eigenvalues --   -0.42495  -0.42456  -0.42437  -0.42279  -0.42262
 Alpha  occ. eigenvalues --   -0.42244  -0.42020  -0.41909  -0.41851  -0.41831
 Alpha  occ. eigenvalues --   -0.41184  -0.41151  -0.41135  -0.41010  -0.40544
 Alpha  occ. eigenvalues --   -0.40512  -0.40493  -0.40397  -0.39444  -0.39427
 Alpha  occ. eigenvalues --   -0.36981  -0.32546  -0.29127  -0.25027  -0.25004
 Alpha  occ. eigenvalues --   -0.23584
 Alpha virt. eigenvalues --   -0.09580  -0.09346  -0.08549  -0.08483  -0.07075
 Alpha virt. eigenvalues --   -0.07046  -0.06937  -0.04590  -0.04235  -0.04190
 Alpha virt. eigenvalues --   -0.03730  -0.03517  -0.03467  -0.03264  -0.03160

 Mulliken charges:
               1
     1  Cl  -0.901493
     2  C   -0.078735
     3  C    0.047682
     4  C   -0.077944
     5  C   -0.033865
     6  C   -0.033495
     7  C   -0.050087
     8  H    0.030779
     9  H    0.029944
    10  H    0.041394
    11  H    0.037169
    12  H    0.040195
    13  C   -0.121610
    14  C    0.020776
    15  H    0.022144
    16  H    0.038975
    17  H    0.025022
    18  O   -0.664020
    19  O   -0.663859
    20  O   -0.655483
    21  O   -0.664254
    22  W    1.736927
    23  W    1.678316
    24  W    1.687862
    25  W    1.698364
    26  W    1.678177
    27  W    1.730472
    28  W    1.622383
    29  W    1.689429
    30  O   -0.319918
    31  O   -0.365646
    32  O   -0.367660
    33  O   -0.360771
    34  O   -0.665970
    35  O   -0.671749
    36  O   -0.662175
    37  O   -0.665268
    38  O   -0.368397
    39  O   -0.365150
    40  O   -0.297234
    41  O   -0.365338
    42  O   -0.670988
    43  O   -0.664369
    44  O   -0.662196
    45  O   -0.666347
    46  O   -0.369394
    47  O   -0.320491
    48  O   -0.362556
    49  O   -0.362365
    50  W    1.676913
    51  W    1.682190
    52  W    1.685866
    53  W    1.688293
    54  O   -0.725882
    55  O   -0.709589
    56  O   -0.726764
    57  O   -0.724007
    58  O   -0.707761
    59  O   -0.728235
    60  O   -0.725950
    61  O   -0.722094
    62  O   -0.725767
    63  O   -0.709144
    64  O   -0.724931
    65  O   -0.727316
    66  O   -0.803004
    67  O   -0.802191
    68  O   -0.798591
    69  O   -0.809744
    70  K    0.863219
    71  K    0.863778
    72  K    0.860407
    73  V    1.193120
 Sum of Mulliken charges =  -1.00000

 Dipole moment (field-independent basis, Debye):
    X=             50.5376    Y=            -51.3903    Z=            -38.6860  Tot=             81.8023
 Quadrupole moment (field-independent basis, Debye-Ang):
   XX=          -1045.1095   YY=           -891.7754   ZZ=           -913.7357
   XY=            450.8071   XZ=            452.5717   YZ=           -480.0795

 Normal termination of Gaussian 16 at Sun Jun  2 15:39:08 2024.
