 Gaussian 16, Revision C.01,
 Gaussian 16:  ES64L-G16RevC.01  3-Jul-2019

 ----------------------------------------------------------------------
 # def2svp wb97xd scrf=(smd,solvent=acetonitrile) g09default scf=(xqc,m
 axcycle=64) force guess=read nosymm
 ----------------------------------------------------------------------

 ----------
 Title Card
 ----------
 Symbolic Z-matrix:
 Charge = -1 Multiplicity = 1

                          Input orientation:
 ---------------------------------------------------------------------
 Center     Atomic      Atomic             Coordinates (Angstroms)
 Number     Number       Type             X           Y           Z
 ---------------------------------------------------------------------
      1         17           0       -9.678895    8.280624   10.553536
      2          6           0       -8.339434    4.243971   12.217099
      3          6           0       -9.136004    3.930322   11.099813
      4          6           0      -10.045991    2.862123   11.214193
      5          6           0      -10.203983    2.178354   12.415057
      6          6           0       -9.442580    2.535851   13.528573
      7          6           0       -8.494139    3.555067   13.416819
      8          1           0       -7.583945    5.029724   12.146619
      9          1           0      -10.639806    2.573160   10.342462
     10          1           0      -10.922096    1.357482   12.482784
     11          1           0       -9.575847    2.010980   14.477215
     12          1           0       -7.869860    3.814841   14.275292
     13          6           0       -9.068535    4.671039    9.838551
     14          6           0       -8.391722    5.816465    9.610042
     15          1           0       -9.649850    4.238307    9.016639
     16          1           0       -8.388691    6.262377    8.613529
     17          1           0       -7.768602    6.300991   10.361736
     18          8           0       -0.976150   -1.798150    7.467054
     19          8           0       -8.394722   -1.333615    7.461353
     20          8           0       -7.023524    1.348322   10.472130
     21          8           0       -2.334166   -4.395484   10.554429
     22         74           0       -3.404368    0.688668    6.474160
     23         74           0       -5.989947   -3.818190    6.558429
     24         74           0       -3.612667    0.869890   11.420188
     25         74           0       -5.761790   -3.861806   11.481905
     26         74           0       -2.429617   -2.593031    6.403408
     27         74           0       -6.941145   -0.532983    6.372623
     28         74           0       -6.819886   -0.248740   11.559455
     29         74           0       -2.542375   -2.735278   11.601746
     30          8           0       -3.169350    1.869778    5.291552
     31          8           0       -6.122957   -5.069540    5.417099
     32          8           0       -2.685844    1.712108   12.569651
     33          8           0       -6.680914   -4.661301   12.665560
     34          8           0       -2.656800   -0.916675    5.587676
     35          8           0       -6.702090   -2.267379    5.621051
     36          8           0       -5.310476    0.550924   12.360135
     37          8           0       -4.049570   -3.530217   12.406014
     38          8           0        0.309143   -0.012809    9.282027
     39          8           0       -9.693082   -3.042444    9.328820
     40          8           0       -6.343679    3.430903    8.664625
     41          8           0       -3.010250   -6.492676    8.744499
     42          8           0       -1.782119    0.749051    7.473501
     43          8           0       -7.597697   -3.883691    7.541856
     44          8           0       -4.492653    2.196565   10.427514
     45          8           0       -4.873857   -5.230914   10.528845
     46          8           0       -1.600044   -3.539898    5.259548
     47          8           0       -7.820034    0.279858    5.181999
     48          8           0       -8.045012   -0.168591   12.733866
     49          8           0       -1.302761   -2.856823   12.757622
     50         74           0       -1.248147   -0.530334    8.837208
     51         74           0       -8.134139   -2.539769    8.874364
     52         74           0       -5.868779    1.858795    9.043743
     53         74           0       -3.494750   -4.918224    9.164483
     54          8           0       -4.211020   -3.111742    6.071985
     55          8           0       -5.152093   -0.062102    6.015343
     56          8           0       -6.169638   -1.997334   11.907169
     57          8           0       -3.170875   -0.987701   11.924861
     58          8           0       -4.353371    1.580335    7.830576
     59          8           0       -5.006426   -4.681032    7.922770
     60          8           0       -2.323880    0.566692   10.079351
     61          8           0       -7.046676   -3.614762   10.130531
     62          8           0       -2.568289   -3.909464    7.868221
     63          8           0       -6.808903    0.794783    7.802696
     64          8           0       -7.825281   -1.176966   10.138361
     65          8           0       -1.558625   -1.869462   10.138843
     66          8           0       -3.355105   -1.158674    8.008504
     67          8           0       -6.019874   -1.958522    8.033784
     68          8           0       -5.115841   -0.208170    9.943454
     69          8           0       -4.235409   -2.847214    9.974484
     70         19           0       -3.212108   -6.134216    5.645756
     71         19           0       -0.109306    0.052334   12.337952
     72         19           0       -9.286201   -2.833454   12.432644
     73         23           0       -4.683662   -1.539716    8.988498
 ---------------------------------------------------------------------

 SCF Done:  E(UwB97XD) =  -7327.70172901     A.U. after   38 cycles

 Alpha  occ. eigenvalues --  -19.24737 -18.94323 -18.93222 -18.93214 -13.36540
 Alpha  occ. eigenvalues --  -13.36464 -13.36443 -10.69466 -10.69462 -10.69460
 Alpha  occ. eigenvalues --  -10.69391 -10.69387 -10.69386 -10.69371 -10.69367
 Alpha  occ. eigenvalues --  -10.69361 -10.32977 -10.32145 -10.31963 -10.31008
 Alpha  occ. eigenvalues --  -10.30976 -10.30959 -10.30563 -10.30488  -9.52764
 Alpha  occ. eigenvalues --   -7.27650  -7.27301  -7.27296  -3.21134  -3.21096
 Alpha  occ. eigenvalues --   -3.21069  -3.21047  -3.21045  -3.21025  -3.21021
 Alpha  occ. eigenvalues --   -3.21015  -3.21006  -3.20887  -3.20879  -3.20847
 Alpha  occ. eigenvalues --   -2.78971  -1.85356  -1.85295  -1.85285  -1.85258
 Alpha  occ. eigenvalues --   -1.85145  -1.85078  -1.85063  -1.85047  -1.85031
 Alpha  occ. eigenvalues --   -1.85020  -1.85009  -1.84953  -1.84396  -1.84286
 Alpha  occ. eigenvalues --   -1.84270  -1.84255  -1.84222  -1.84212  -1.84153
 Alpha  occ. eigenvalues --   -1.84138  -1.84112  -1.84103  -1.84076  -1.84063
 Alpha  occ. eigenvalues --   -1.83966  -1.83924  -1.83889  -1.83881  -1.83865
 Alpha  occ. eigenvalues --   -1.83835  -1.83812  -1.83802  -1.83794  -1.83698
 Alpha  occ. eigenvalues --   -1.83687  -1.83680  -1.82115  -1.81766  -1.81760
 Alpha  occ. eigenvalues --   -1.50240  -1.50169  -1.50153  -1.08632  -1.07007
 Alpha  occ. eigenvalues --   -1.06965  -1.06924  -1.06012  -1.06009  -1.05979
 Alpha  occ. eigenvalues --   -1.04577  -1.04572  -1.04559  -1.03992  -1.03980
 Alpha  occ. eigenvalues --   -1.03750  -1.03386  -1.03356  -1.03334  -1.03027
 Alpha  occ. eigenvalues --   -1.02993  -1.02265  -1.02233  -1.02223  -1.02092
 Alpha  occ. eigenvalues --   -1.02007  -1.01976  -1.01907  -1.01888  -1.01771
 Alpha  occ. eigenvalues --   -1.01756  -1.01738  -1.01623  -1.01586  -1.01565
 Alpha  occ. eigenvalues --   -1.01295  -1.00829  -1.00748  -1.00684  -1.00679
 Alpha  occ. eigenvalues --   -1.00044  -0.99989  -0.99927  -0.96156  -0.89217
 Alpha  occ. eigenvalues --   -0.85682  -0.85612  -0.85604  -0.85531  -0.85512
 Alpha  occ. eigenvalues --   -0.85458  -0.85457  -0.85452  -0.85413  -0.84247
 Alpha  occ. eigenvalues --   -0.82459  -0.81152  -0.71901  -0.69601  -0.65049
 Alpha  occ. eigenvalues --   -0.62338  -0.61724  -0.61666  -0.61642  -0.60545
 Alpha  occ. eigenvalues --   -0.58976  -0.58955  -0.58933  -0.58880  -0.58816
 Alpha  occ. eigenvalues --   -0.58808  -0.58779  -0.58739  -0.58560  -0.57399
 Alpha  occ. eigenvalues --   -0.57360  -0.57343  -0.57044  -0.56719  -0.56514
 Alpha  occ. eigenvalues --   -0.56467  -0.56425  -0.56047  -0.55900  -0.55364
 Alpha  occ. eigenvalues --   -0.55352  -0.55316  -0.54446  -0.54153  -0.54134
 Alpha  occ. eigenvalues --   -0.53937  -0.53726  -0.53682  -0.53663  -0.52712
 Alpha  occ. eigenvalues --   -0.52634  -0.52604  -0.52499  -0.52462  -0.51484
 Alpha  occ. eigenvalues --   -0.51468  -0.51443  -0.51350  -0.51295  -0.50761
 Alpha  occ. eigenvalues --   -0.50560  -0.50533  -0.50482  -0.50391  -0.50318
 Alpha  occ. eigenvalues --   -0.50290  -0.50048  -0.50006  -0.49981  -0.49733
 Alpha  occ. eigenvalues --   -0.49634  -0.49590  -0.49496  -0.49471  -0.49288
 Alpha  occ. eigenvalues --   -0.49240  -0.49204  -0.49151  -0.49101  -0.49034
 Alpha  occ. eigenvalues --   -0.48696  -0.48531  -0.48512  -0.48453  -0.47645
 Alpha  occ. eigenvalues --   -0.47617  -0.47130  -0.46479  -0.46049  -0.46027
 Alpha  occ. eigenvalues --   -0.45894  -0.45806  -0.45753  -0.45618  -0.45221
 Alpha  occ. eigenvalues --   -0.45140  -0.45137  -0.44765  -0.44582  -0.44491
 Alpha  occ. eigenvalues --   -0.44477  -0.44445  -0.44302  -0.44207  -0.44168
 Alpha  occ. eigenvalues --   -0.43474  -0.43061  -0.42549  -0.42512  -0.42431
 Alpha  occ. eigenvalues --   -0.42340  -0.42192  -0.42169  -0.42164  -0.41636
 Alpha  occ. eigenvalues --   -0.41618  -0.41591  -0.41028  -0.40979  -0.40762
 Alpha  occ. eigenvalues --   -0.40756  -0.40721  -0.40352  -0.40336  -0.40308
 Alpha  occ. eigenvalues --   -0.40195  -0.40157  -0.40146  -0.40112  -0.39846
 Alpha  occ. eigenvalues --   -0.39366  -0.39262  -0.39242  -0.39124  -0.39069
 Alpha  occ. eigenvalues --   -0.38898  -0.38866  -0.38809  -0.38774  -0.38696
 Alpha  occ. eigenvalues --   -0.38300  -0.38261  -0.38212  -0.37989  -0.37212
 Alpha  occ. eigenvalues --   -0.37173  -0.34889  -0.34858  -0.33628  -0.30263
 Alpha  occ. eigenvalues --   -0.25970
 Alpha virt. eigenvalues --   -0.12277  -0.06422  -0.06357  -0.04920  -0.04879
 Alpha virt. eigenvalues --   -0.04758  -0.01532  -0.01421  -0.01378  -0.01173
 Alpha virt. eigenvalues --   -0.00939  -0.00926  -0.00901  -0.00166  -0.00102

  Beta  occ. eigenvalues -- -197.11080-129.99127-129.99053-129.99038-101.62762
  Beta  occ. eigenvalues --  -22.43482 -19.28544 -19.28508 -19.28453 -19.28402
  Beta  occ. eigenvalues --  -19.28386 -19.28366 -19.28350 -19.28347 -19.28338
  Beta  occ. eigenvalues --  -19.28282 -19.28256 -19.28161 -19.26950 -19.26911
  Beta  occ. eigenvalues --  -19.26906 -19.26862 -19.26857 -19.26826 -19.26823
  Beta  occ. eigenvalues --  -19.26818 -19.26816 -19.26813 -19.26794 -19.26788
  Beta  occ. eigenvalues --  -19.26765 -19.26760 -19.26759 -19.26756 -19.26753
  Beta  occ. eigenvalues --  -19.26752 -19.26731 -19.26726 -19.26717 -19.26702
  Beta  occ. eigenvalues --  -19.26647 -19.26594 -19.24797 -19.24771 -19.24736
  Beta  occ. eigenvalues --  -19.24711 -18.93978 -18.91760 -18.91748 -13.36540
  Beta  occ. eigenvalues --  -13.36464 -13.36443 -10.69466 -10.69462 -10.69460
  Beta  occ. eigenvalues --  -10.69391 -10.69387 -10.69386 -10.69371 -10.69367
  Beta  occ. eigenvalues --  -10.69361 -10.33242 -10.32264 -10.31916 -10.31108
  Beta  occ. eigenvalues --  -10.31096 -10.31056 -10.30507 -10.30432  -9.53219
  Beta  occ. eigenvalues --   -7.29084  -7.27613  -7.27608  -3.21133  -3.21090
  Beta  occ. eigenvalues --   -3.21068  -3.21044  -3.21041  -3.21020  -3.21015
  Beta  occ. eigenvalues --   -3.21009  -3.21000  -3.20887  -3.20875  -3.20842
  Beta  occ. eigenvalues --   -2.74903  -1.85351  -1.85290  -1.85280  -1.85250
  Beta  occ. eigenvalues --   -1.85139  -1.85073  -1.85059  -1.85042  -1.85023
  Beta  occ. eigenvalues --   -1.85012  -1.85002  -1.84944  -1.84393  -1.84284
  Beta  occ. eigenvalues --   -1.84267  -1.84253  -1.84219  -1.84209  -1.84150
  Beta  occ. eigenvalues --   -1.84136  -1.84109  -1.84100  -1.84073  -1.84060
  Beta  occ. eigenvalues --   -1.83963  -1.83921  -1.83886  -1.83878  -1.83862
  Beta  occ. eigenvalues --   -1.83832  -1.83810  -1.83799  -1.83791  -1.83695
  Beta  occ. eigenvalues --   -1.83684  -1.83678  -1.80774  -1.76016  -1.75993
  Beta  occ. eigenvalues --   -1.50240  -1.50169  -1.50153  -1.08614  -1.06988
  Beta  occ. eigenvalues --   -1.06942  -1.06897  -1.06011  -1.06007  -1.05978
  Beta  occ. eigenvalues --   -1.04579  -1.04572  -1.04558  -1.03994  -1.03979
  Beta  occ. eigenvalues --   -1.03683  -1.03355  -1.03315  -1.03298  -1.03026
  Beta  occ. eigenvalues --   -1.02985  -1.02247  -1.02208  -1.02207  -1.02083
  Beta  occ. eigenvalues --   -1.02002  -1.01963  -1.01903  -1.01874  -1.01767
  Beta  occ. eigenvalues --   -1.01753  -1.01735  -1.01620  -1.01584  -1.01549
  Beta  occ. eigenvalues --   -1.01295  -1.00790  -1.00747  -1.00684  -1.00679
  Beta  occ. eigenvalues --   -0.99909  -0.99858  -0.99811  -0.96376  -0.89863
  Beta  occ. eigenvalues --   -0.85682  -0.85612  -0.85604  -0.85531  -0.85512
  Beta  occ. eigenvalues --   -0.85458  -0.85457  -0.85452  -0.85413  -0.84793
  Beta  occ. eigenvalues --   -0.84339  -0.82705  -0.72151  -0.69720  -0.65288
  Beta  occ. eigenvalues --   -0.62338  -0.61723  -0.61666  -0.61641  -0.60748
  Beta  occ. eigenvalues --   -0.58972  -0.58954  -0.58932  -0.58806  -0.58794
  Beta  occ. eigenvalues --   -0.58772  -0.58750  -0.58682  -0.58560  -0.57361
  Beta  occ. eigenvalues --   -0.57216  -0.57174  -0.57001  -0.56888  -0.56517
  Beta  occ. eigenvalues --   -0.56434  -0.56389  -0.55856  -0.55642  -0.55345
  Beta  occ. eigenvalues --   -0.55334  -0.55316  -0.54646  -0.54145  -0.54125
  Beta  occ. eigenvalues --   -0.53928  -0.53687  -0.53653  -0.53622  -0.52766
  Beta  occ. eigenvalues --   -0.52652  -0.52592  -0.52480  -0.52457  -0.51458
  Beta  occ. eigenvalues --   -0.51443  -0.51435  -0.51292  -0.51221  -0.50946
  Beta  occ. eigenvalues --   -0.50543  -0.50475  -0.50457  -0.50331  -0.50254
  Beta  occ. eigenvalues --   -0.50167  -0.50018  -0.50004  -0.49947  -0.49680
  Beta  occ. eigenvalues --   -0.49610  -0.49554  -0.49485  -0.49461  -0.49287
  Beta  occ. eigenvalues --   -0.49219  -0.49200  -0.49125  -0.49088  -0.49015
  Beta  occ. eigenvalues --   -0.48690  -0.48527  -0.48511  -0.48446  -0.47785
  Beta  occ. eigenvalues --   -0.47580  -0.47558  -0.45997  -0.45907  -0.45868
  Beta  occ. eigenvalues --   -0.45825  -0.45672  -0.45567  -0.45221  -0.45161
  Beta  occ. eigenvalues --   -0.45140  -0.45047  -0.44764  -0.44579  -0.44475
  Beta  occ. eigenvalues --   -0.44424  -0.44413  -0.44282  -0.44185  -0.44154
  Beta  occ. eigenvalues --   -0.43468  -0.43168  -0.42489  -0.42458  -0.42398
  Beta  occ. eigenvalues --   -0.42270  -0.42248  -0.42149  -0.42131  -0.41621
  Beta  occ. eigenvalues --   -0.41598  -0.41568  -0.41348  -0.41034  -0.40935
  Beta  occ. eigenvalues --   -0.40750  -0.40690  -0.40654  -0.40337  -0.40328
  Beta  occ. eigenvalues --   -0.40292  -0.40145  -0.40134  -0.40122  -0.39789
  Beta  occ. eigenvalues --   -0.39614  -0.39364  -0.39167  -0.39097  -0.39083
  Beta  occ. eigenvalues --   -0.38893  -0.38839  -0.38816  -0.38764  -0.38712
  Beta  occ. eigenvalues --   -0.38659  -0.38299  -0.38257  -0.38209  -0.37840
  Beta  occ. eigenvalues --   -0.37214  -0.37167  -0.35844  -0.35808  -0.33900
  Beta  occ. eigenvalues --   -0.30898
  Beta virt. eigenvalues --   -0.06421  -0.06356  -0.04918  -0.04878  -0.04757
  Beta virt. eigenvalues --   -0.01527  -0.01417  -0.01372  -0.01167  -0.00934
  Beta virt. eigenvalues --   -0.00921  -0.00896  -0.00155  -0.00089  -0.00052

 Mulliken charges and spin densities:
               1          2
     1  Cl  -0.341538  -0.618816
     2  C   -0.035170  -0.092524
     3  C    0.012893   0.054102
     4  C   -0.034928  -0.088532
     5  C   -0.031579   0.056503
     6  C    0.006871  -0.112048
     7  C   -0.048295   0.056587
     8  H    0.050840   0.004071
     9  H    0.050873   0.003801
    10  H    0.055908  -0.002006
    11  H    0.056734   0.004924
    12  H    0.054469  -0.001993
    13  C    0.003954  -0.248357
    14  C   -0.046467  -0.025174
    15  H    0.076106   0.010337
    16  H    0.095249   0.001838
    17  H    0.086829  -0.000942
    18  O   -0.673004  -0.000570
    19  O   -0.672735  -0.000531
    20  O   -0.666834  -0.001637
    21  O   -0.673334  -0.000543
    22  W    1.720387   0.000360
    23  W    1.664068   0.000479
    24  W    1.675128   0.000169
    25  W    1.684298   0.000203
    26  W    1.664560   0.002690
    27  W    1.712863   0.002411
    28  W    1.614292   0.003351
    29  W    1.675069   0.002800
    30  O   -0.349860  -0.000535
    31  O   -0.394033  -0.000566
    32  O   -0.396085  -0.000609
    33  O   -0.389522  -0.000565
    34  O   -0.674304  -0.000288
    35  O   -0.679266  -0.000039
    36  O   -0.671345  -0.000143
    37  O   -0.674217  -0.000214
    38  O   -0.398179   0.002082
    39  O   -0.395273   0.002112
    40  O   -0.340147   0.000129
    41  O   -0.395392   0.002079
    42  O   -0.678771   0.000030
    43  O   -0.673084   0.000124
    44  O   -0.670704   0.000248
    45  O   -0.674866   0.000072
    46  O   -0.399277   0.002270
    47  O   -0.352235   0.002175
    48  O   -0.395579   0.001839
    49  O   -0.392540   0.002342
    50  W    1.662859   0.002728
    51  W    1.667778   0.002622
    52  W    1.678719   0.003818
    53  W    1.673683   0.002569
    54  O   -0.723812   0.000108
    55  O   -0.707818   0.000021
    56  O   -0.723365   0.000164
    57  O   -0.722132   0.000066
    58  O   -0.705675   0.000057
    59  O   -0.725399   0.000146
    60  O   -0.723382   0.000199
    61  O   -0.719729   0.000188
    62  O   -0.724280  -0.000187
    63  O   -0.707980  -0.000061
    64  O   -0.723931  -0.000214
    65  O   -0.725253  -0.000218
    66  O   -0.885509   0.005138
    67  O   -0.885518   0.007191
    68  O   -0.881881   0.006879
    69  O   -0.889879   0.006345
    70  K    0.849584   0.000188
    71  K    0.850472   0.000209
    72  K    0.846677   0.000213
    73  V    1.202946   0.938336
 Sum of Mulliken charges =  -1.00000   0.00000

 Dipole moment (field-independent basis, Debye):
    X=             28.3370    Y=            -13.5760    Z=            -30.5451  Tot=             43.8212
 Quadrupole moment (field-independent basis, Debye-Ang):
   XX=           -761.8103   YY=           -710.1560   ZZ=           -778.1561
   XY=            127.0838   XZ=            176.1986   YZ=            -91.9497

 Normal termination of Gaussian 16 at Sun Jun  2 15:28:57 2024.
