 Gaussian 16, Revision C.01,
 Gaussian 16:  ES64L-G16RevC.01  3-Jul-2019

 ----------------------------------------------------------------------
 # def2svp wb97xd scrf=(smd,solvent=acetonitrile) g09default scf=(xqc,m
 axcycle=64) force guess=read nosymm
 ----------------------------------------------------------------------

 ----------
 Title Card
 ----------
 Symbolic Z-matrix:
 Charge = -1 Multiplicity = 1

                          Input orientation:
 ---------------------------------------------------------------------
 Center     Atomic      Atomic             Coordinates (Angstroms)
 Number     Number       Type             X           Y           Z
 ---------------------------------------------------------------------
      1         17           0       -9.672473    8.280229   10.552379
      2          6           0       -8.340238    4.244755   12.216790
      3          6           0       -9.136683    3.930563   11.099548
      4          6           0      -10.046944    2.862755   11.214396
      5          6           0      -10.204332    2.178731   12.415174
      6          6           0       -9.441851    2.535874   13.528362
      7          6           0       -8.494182    3.555732   13.416240
      8          1           0       -7.585704    5.031648   12.146230
      9          1           0      -10.641985    2.574915   10.343148
     10          1           0      -10.922659    1.358260   12.483246
     11          1           0       -9.574034    2.010242   14.476616
     12          1           0       -7.869897    3.815863   14.274850
     13          6           0       -9.070365    4.671453    9.838278
     14          6           0       -8.396149    5.818546    9.611283
     15          1           0       -9.651454    4.238440    9.016378
     16          1           0       -8.395809    6.267541    8.616138
     17          1           0       -7.773798    6.302882   10.363611
     18          8           0       -0.975869   -1.798897    7.466974
     19          8           0       -8.393843   -1.333472    7.461461
     20          8           0       -7.022859    1.348210   10.472190
     21          8           0       -2.334198   -4.396074   10.554522
     22         74           0       -3.403796    0.688686    6.474594
     23         74           0       -5.989662   -3.818379    6.558235
     24         74           0       -3.612241    0.869471   11.419701
     25         74           0       -5.761615   -3.862303   11.482179
     26         74           0       -2.429345   -2.593128    6.403444
     27         74           0       -6.940522   -0.533145    6.372393
     28         74           0       -6.819237   -0.248970   11.559546
     29         74           0       -2.542344   -2.736140   11.601811
     30          8           0       -3.168945    1.869805    5.291706
     31          8           0       -6.122631   -5.069679    5.416834
     32          8           0       -2.684942    1.711263   12.569036
     33          8           0       -6.681009   -4.661730   12.665585
     34          8           0       -2.656864   -0.916953    5.587947
     35          8           0       -6.701685   -2.267532    5.620893
     36          8           0       -5.309755    0.550709   12.359996
     37          8           0       -4.049528   -3.530883   12.406362
     38          8           0        0.309937   -0.013741    9.281540
     39          8           0       -9.692605   -3.042642    9.328491
     40          8           0       -6.343488    3.430872    8.664437
     41          8           0       -3.010731   -6.493139    8.744201
     42          8           0       -1.781509    0.748324    7.473388
     43          8           0       -7.597499   -3.883609    7.541616
     44          8           0       -4.492035    2.196177   10.427229
     45          8           0       -4.873690   -5.231419   10.529227
     46          8           0       -1.599869   -3.539286    5.259114
     47          8           0       -7.818964    0.279788    5.181470
     48          8           0       -8.043918   -0.168368   12.734297
     49          8           0       -1.303201   -2.857424   12.758128
     50         74           0       -1.247617   -0.531221    8.837335
     51         74           0       -8.133509   -2.539923    8.874290
     52         74           0       -5.868667    1.858707    9.043573
     53         74           0       -3.494934   -4.918765    9.164378
     54          8           0       -4.210910   -3.112122    6.072367
     55          8           0       -5.151486   -0.062474    6.015866
     56          8           0       -6.169165   -1.997607   11.907229
     57          8           0       -3.171136   -0.988529   11.923870
     58          8           0       -4.352816    1.580129    7.830840
     59          8           0       -5.006687   -4.681330    7.923086
     60          8           0       -2.323288    0.565928   10.078939
     61          8           0       -7.046097   -3.614864   10.130378
     62          8           0       -2.568426   -3.909700    7.868472
     63          8           0       -6.808484    0.794767    7.802656
     64          8           0       -7.824695   -1.177085   10.138465
     65          8           0       -1.557969   -1.870286   10.138894
     66          8           0       -3.354762   -1.159081    8.009033
     67          8           0       -6.019100   -1.958912    8.033802
     68          8           0       -5.115399   -0.208638    9.943314
     69          8           0       -4.235442   -2.847747    9.974657
     70         19           0       -3.212187   -6.133920    5.645981
     71         19           0       -0.110006    0.051410   12.336664
     72         19           0       -9.285708   -2.831754   12.431895
     73         23           0       -4.683269   -1.540213    8.988680
 ---------------------------------------------------------------------

 SCF Done:  E(RwB97XD) =  -7327.70172208     A.U. after   10 cycles

 Alpha  occ. eigenvalues -- -197.29575-130.00102-130.00080-129.99974-101.48254
 Alpha  occ. eigenvalues --  -22.62685 -19.33678 -19.33672 -19.33671 -19.33645
 Alpha  occ. eigenvalues --  -19.30728 -19.30685 -19.30684 -19.30678 -19.30671
 Alpha  occ. eigenvalues --  -19.30668 -19.30664 -19.30627 -19.30549 -19.30376
 Alpha  occ. eigenvalues --  -19.30346 -19.30182 -19.29321 -19.29308 -19.29305
 Alpha  occ. eigenvalues --  -19.29280 -19.29270 -19.29255 -19.29222 -19.29196
 Alpha  occ. eigenvalues --  -19.29188 -19.29172 -19.29166 -19.29147 -19.29130
 Alpha  occ. eigenvalues --  -19.29099 -19.29092 -19.29074 -19.29072 -19.29057
 Alpha  occ. eigenvalues --  -19.29051 -19.28997 -19.28982 -19.28965 -19.28924
 Alpha  occ. eigenvalues --  -19.28850 -19.11644 -19.11636 -19.11626 -13.37508
 Alpha  occ. eigenvalues --  -13.37484 -13.37372 -10.70437 -10.70430 -10.70429
 Alpha  occ. eigenvalues --  -10.70413 -10.70406 -10.70405 -10.70303 -10.70297
 Alpha  occ. eigenvalues --  -10.70291 -10.29881 -10.29351 -10.29295 -10.29080
 Alpha  occ. eigenvalues --  -10.28994 -10.28990 -10.28136 -10.27610  -9.38724
 Alpha  occ. eigenvalues --   -7.13550  -7.13503  -7.13495  -3.23322  -3.23318
 Alpha  occ. eigenvalues --   -3.23309  -3.23299  -3.23296  -3.23283  -3.23269
 Alpha  occ. eigenvalues --   -3.23260  -3.23227  -3.22988  -3.22978  -3.22794
 Alpha  occ. eigenvalues --   -2.91892  -1.94263  -1.94228  -1.94218  -1.87722
 Alpha  occ. eigenvalues --   -1.87676  -1.87661  -1.87632  -1.87489  -1.87473
 Alpha  occ. eigenvalues --   -1.87468  -1.87452  -1.87427  -1.87286  -1.87255
 Alpha  occ. eigenvalues --   -1.87104  -1.86629  -1.86511  -1.86503  -1.86486
 Alpha  occ. eigenvalues --   -1.86461  -1.86439  -1.86346  -1.86337  -1.86319
 Alpha  occ. eigenvalues --   -1.86300  -1.86295  -1.86264  -1.86151  -1.86138
 Alpha  occ. eigenvalues --   -1.86128  -1.86119  -1.86048  -1.86032  -1.85994
 Alpha  occ. eigenvalues --   -1.85929  -1.85912  -1.85813  -1.85721  -1.85674
 Alpha  occ. eigenvalues --   -1.51194  -1.51174  -1.51070  -1.13086  -1.11319
 Alpha  occ. eigenvalues --   -1.11240  -1.11233  -1.08974  -1.08535  -1.08492
 Alpha  occ. eigenvalues --   -1.08313  -1.07572  -1.07518  -1.07503  -1.06900
 Alpha  occ. eigenvalues --   -1.06889  -1.06870  -1.06327  -1.06310  -1.05312
 Alpha  occ. eigenvalues --   -1.05301  -1.04977  -1.04973  -1.04966  -1.04190
 Alpha  occ. eigenvalues --   -1.04181  -1.04169  -1.04024  -1.04006  -1.03993
 Alpha  occ. eigenvalues --   -1.03936  -1.03911  -1.03894  -1.03761  -1.03732
 Alpha  occ. eigenvalues --   -1.03614  -1.03549  -1.03305  -1.03262  -1.03115
 Alpha  occ. eigenvalues --   -1.03101  -1.03021  -1.02959  -0.94379  -0.86662
 Alpha  occ. eigenvalues --   -0.86643  -0.86546  -0.86503  -0.86472  -0.86455
 Alpha  occ. eigenvalues --   -0.86450  -0.86446  -0.86358  -0.86321  -0.82816
 Alpha  occ. eigenvalues --   -0.79782  -0.71480  -0.69693  -0.68024  -0.64616
 Alpha  occ. eigenvalues --   -0.63989  -0.63915  -0.63907  -0.63338  -0.63318
 Alpha  occ. eigenvalues --   -0.63185  -0.62967  -0.62701  -0.62609  -0.62022
 Alpha  occ. eigenvalues --   -0.61631  -0.61620  -0.61523  -0.61257  -0.61244
 Alpha  occ. eigenvalues --   -0.61175  -0.60413  -0.59491  -0.59477  -0.59460
 Alpha  occ. eigenvalues --   -0.59424  -0.59375  -0.58586  -0.57999  -0.57974
 Alpha  occ. eigenvalues --   -0.57880  -0.57086  -0.57044  -0.57015  -0.56300
 Alpha  occ. eigenvalues --   -0.56278  -0.56120  -0.55701  -0.54860  -0.54807
 Alpha  occ. eigenvalues --   -0.54770  -0.54534  -0.54241  -0.54110  -0.54090
 Alpha  occ. eigenvalues --   -0.54016  -0.53958  -0.53233  -0.53194  -0.53064
 Alpha  occ. eigenvalues --   -0.53031  -0.52904  -0.52699  -0.52662  -0.52636
 Alpha  occ. eigenvalues --   -0.52586  -0.52516  -0.52465  -0.52456  -0.51606
 Alpha  occ. eigenvalues --   -0.51582  -0.51333  -0.51310  -0.51268  -0.51228
 Alpha  occ. eigenvalues --   -0.51174  -0.51167  -0.50942  -0.50758  -0.50579
 Alpha  occ. eigenvalues --   -0.50562  -0.50556  -0.49873  -0.49855  -0.49299
 Alpha  occ. eigenvalues --   -0.49284  -0.49253  -0.49219  -0.49162  -0.49071
 Alpha  occ. eigenvalues --   -0.48899  -0.48083  -0.48031  -0.47929  -0.47716
 Alpha  occ. eigenvalues --   -0.47386  -0.47286  -0.47245  -0.46999  -0.46925
 Alpha  occ. eigenvalues --   -0.46813  -0.46554  -0.46488  -0.46471  -0.46197
 Alpha  occ. eigenvalues --   -0.46145  -0.46109  -0.45599  -0.45099  -0.44918
 Alpha  occ. eigenvalues --   -0.44875  -0.44212  -0.44147  -0.44036  -0.43528
 Alpha  occ. eigenvalues --   -0.43274  -0.43222  -0.43112  -0.43096  -0.43063
 Alpha  occ. eigenvalues --   -0.42699  -0.42675  -0.42654  -0.42587  -0.42578
 Alpha  occ. eigenvalues --   -0.42495  -0.42457  -0.42438  -0.42280  -0.42263
 Alpha  occ. eigenvalues --   -0.42246  -0.42021  -0.41910  -0.41852  -0.41832
 Alpha  occ. eigenvalues --   -0.41181  -0.41152  -0.41135  -0.41011  -0.40544
 Alpha  occ. eigenvalues --   -0.40513  -0.40494  -0.40391  -0.39444  -0.39428
 Alpha  occ. eigenvalues --   -0.36979  -0.32547  -0.29134  -0.25044  -0.25021
 Alpha  occ. eigenvalues --   -0.23581
 Alpha virt. eigenvalues --   -0.09568  -0.09335  -0.08549  -0.08484  -0.07074
 Alpha virt. eigenvalues --   -0.07046  -0.06939  -0.04578  -0.04226  -0.04182
 Alpha virt. eigenvalues --   -0.03729  -0.03514  -0.03465  -0.03262  -0.03159

 Mulliken charges:
               1
     1  Cl  -0.900280
     2  C   -0.078863
     3  C    0.047766
     4  C   -0.078118
     5  C   -0.033865
     6  C   -0.033583
     7  C   -0.050067
     8  H    0.030786
     9  H    0.029845
    10  H    0.041307
    11  H    0.037101
    12  H    0.040226
    13  C   -0.121872
    14  C    0.021006
    15  H    0.021997
    16  H    0.038669
    17  H    0.024859
    18  O   -0.664002
    19  O   -0.663859
    20  O   -0.655483
    21  O   -0.664295
    22  W    1.736791
    23  W    1.678358
    24  W    1.687961
    25  W    1.698414
    26  W    1.678175
    27  W    1.730405
    28  W    1.622300
    29  W    1.689448
    30  O   -0.320074
    31  O   -0.365674
    32  O   -0.367701
    33  O   -0.360688
    34  O   -0.665878
    35  O   -0.671716
    36  O   -0.662140
    37  O   -0.665240
    38  O   -0.368446
    39  O   -0.365201
    40  O   -0.297297
    41  O   -0.365269
    42  O   -0.670963
    43  O   -0.664369
    44  O   -0.662126
    45  O   -0.666334
    46  O   -0.369254
    47  O   -0.320502
    48  O   -0.362553
    49  O   -0.362315
    50  W    1.676845
    51  W    1.682221
    52  W    1.685796
    53  W    1.688267
    54  O   -0.725981
    55  O   -0.709557
    56  O   -0.726770
    57  O   -0.724059
    58  O   -0.707676
    59  O   -0.728230
    60  O   -0.726009
    61  O   -0.722115
    62  O   -0.725787
    63  O   -0.709045
    64  O   -0.725022
    65  O   -0.727295
    66  O   -0.802991
    67  O   -0.802172
    68  O   -0.798623
    69  O   -0.809868
    70  K    0.863195
    71  K    0.863655
    72  K    0.860364
    73  V    1.193470
 Sum of Mulliken charges =  -1.00000

 Dipole moment (field-independent basis, Debye):
    X=             50.4946    Y=            -51.3566    Z=            -38.6920  Tot=             81.7574
 Quadrupole moment (field-independent basis, Debye-Ang):
   XX=          -1044.4173   YY=           -891.4694   ZZ=           -913.9140
   XY=            450.1678   XZ=            452.1273   YZ=           -479.6569

 Normal termination of Gaussian 16 at Sun Jun  2 16:12:40 2024.
