 Gaussian 16, Revision C.01,
 Gaussian 16:  ES64L-G16RevC.01  3-Jul-2019

 ----------------------------------------------------------------------
 # def2svp wb97xd scrf=(smd,solvent=acetonitrile) g09default scf=(xqc,m
 axcycle=64) force guess=read nosymm
 ----------------------------------------------------------------------

 ----------
 Title Card
 ----------
 Symbolic Z-matrix:
 Charge = -1 Multiplicity = 1

                          Input orientation:
 ---------------------------------------------------------------------
 Center     Atomic      Atomic             Coordinates (Angstroms)
 Number     Number       Type             X           Y           Z
 ---------------------------------------------------------------------
      1         17           0       -9.672473    8.280229   10.552379
      2          6           0       -8.340238    4.244755   12.216790
      3          6           0       -9.136683    3.930563   11.099548
      4          6           0      -10.046944    2.862755   11.214396
      5          6           0      -10.204332    2.178731   12.415174
      6          6           0       -9.441851    2.535874   13.528362
      7          6           0       -8.494182    3.555732   13.416240
      8          1           0       -7.585704    5.031648   12.146230
      9          1           0      -10.641985    2.574915   10.343148
     10          1           0      -10.922659    1.358260   12.483246
     11          1           0       -9.574034    2.010242   14.476616
     12          1           0       -7.869897    3.815863   14.274850
     13          6           0       -9.070365    4.671453    9.838278
     14          6           0       -8.396149    5.818546    9.611283
     15          1           0       -9.651454    4.238440    9.016378
     16          1           0       -8.395809    6.267541    8.616138
     17          1           0       -7.773798    6.302882   10.363611
     18          8           0       -0.975869   -1.798897    7.466974
     19          8           0       -8.393843   -1.333472    7.461461
     20          8           0       -7.022859    1.348210   10.472190
     21          8           0       -2.334198   -4.396074   10.554522
     22         74           0       -3.403796    0.688686    6.474594
     23         74           0       -5.989662   -3.818379    6.558235
     24         74           0       -3.612241    0.869471   11.419701
     25         74           0       -5.761615   -3.862303   11.482179
     26         74           0       -2.429345   -2.593128    6.403444
     27         74           0       -6.940522   -0.533145    6.372393
     28         74           0       -6.819237   -0.248970   11.559546
     29         74           0       -2.542344   -2.736140   11.601811
     30          8           0       -3.168945    1.869805    5.291706
     31          8           0       -6.122631   -5.069679    5.416834
     32          8           0       -2.684942    1.711263   12.569036
     33          8           0       -6.681009   -4.661730   12.665585
     34          8           0       -2.656864   -0.916953    5.587947
     35          8           0       -6.701685   -2.267532    5.620893
     36          8           0       -5.309755    0.550709   12.359996
     37          8           0       -4.049528   -3.530883   12.406362
     38          8           0        0.309937   -0.013741    9.281540
     39          8           0       -9.692605   -3.042642    9.328491
     40          8           0       -6.343488    3.430872    8.664437
     41          8           0       -3.010731   -6.493139    8.744201
     42          8           0       -1.781509    0.748324    7.473388
     43          8           0       -7.597499   -3.883609    7.541616
     44          8           0       -4.492035    2.196177   10.427229
     45          8           0       -4.873690   -5.231419   10.529227
     46          8           0       -1.599869   -3.539286    5.259114
     47          8           0       -7.818964    0.279788    5.181470
     48          8           0       -8.043918   -0.168368   12.734297
     49          8           0       -1.303201   -2.857424   12.758128
     50         74           0       -1.247617   -0.531221    8.837335
     51         74           0       -8.133509   -2.539923    8.874290
     52         74           0       -5.868667    1.858707    9.043573
     53         74           0       -3.494934   -4.918765    9.164378
     54          8           0       -4.210910   -3.112122    6.072367
     55          8           0       -5.151486   -0.062474    6.015866
     56          8           0       -6.169165   -1.997607   11.907229
     57          8           0       -3.171136   -0.988529   11.923870
     58          8           0       -4.352816    1.580129    7.830840
     59          8           0       -5.006687   -4.681330    7.923086
     60          8           0       -2.323288    0.565928   10.078939
     61          8           0       -7.046097   -3.614864   10.130378
     62          8           0       -2.568426   -3.909700    7.868472
     63          8           0       -6.808484    0.794767    7.802656
     64          8           0       -7.824695   -1.177085   10.138465
     65          8           0       -1.557969   -1.870286   10.138894
     66          8           0       -3.354762   -1.159081    8.009033
     67          8           0       -6.019100   -1.958912    8.033802
     68          8           0       -5.115399   -0.208638    9.943314
     69          8           0       -4.235442   -2.847747    9.974657
     70         19           0       -3.212187   -6.133920    5.645981
     71         19           0       -0.110006    0.051410   12.336664
     72         19           0       -9.285708   -2.831754   12.431895
     73         23           0       -4.683269   -1.540213    8.988680
 ---------------------------------------------------------------------

 SCF Done:  E(UwB97XD) =  -7327.70175088     A.U. after   33 cycles

 Alpha  occ. eigenvalues --  -19.24731 -18.94307 -18.93206 -18.93196 -13.36536
 Alpha  occ. eigenvalues --  -13.36465 -13.36441 -10.69462 -10.69458 -10.69456
 Alpha  occ. eigenvalues --  -10.69391 -10.69387 -10.69386 -10.69369 -10.69365
 Alpha  occ. eigenvalues --  -10.69359 -10.32981 -10.32148 -10.31966 -10.31011
 Alpha  occ. eigenvalues --  -10.30980 -10.30960 -10.30566 -10.30492  -9.52746
 Alpha  occ. eigenvalues --   -7.27632  -7.27284  -7.27279  -3.21134  -3.21098
 Alpha  occ. eigenvalues --   -3.21070  -3.21047  -3.21044  -3.21026  -3.21021
 Alpha  occ. eigenvalues --   -3.21015  -3.21005  -3.20887  -3.20880  -3.20848
 Alpha  occ. eigenvalues --   -2.78959  -1.85357  -1.85295  -1.85285  -1.85258
 Alpha  occ. eigenvalues --   -1.85146  -1.85078  -1.85064  -1.85047  -1.85032
 Alpha  occ. eigenvalues --   -1.85021  -1.85009  -1.84953  -1.84396  -1.84287
 Alpha  occ. eigenvalues --   -1.84271  -1.84256  -1.84222  -1.84213  -1.84154
 Alpha  occ. eigenvalues --   -1.84138  -1.84113  -1.84104  -1.84076  -1.84064
 Alpha  occ. eigenvalues --   -1.83967  -1.83925  -1.83888  -1.83881  -1.83866
 Alpha  occ. eigenvalues --   -1.83836  -1.83813  -1.83802  -1.83794  -1.83699
 Alpha  occ. eigenvalues --   -1.83688  -1.83681  -1.82104  -1.81756  -1.81749
 Alpha  occ. eigenvalues --   -1.50236  -1.50169  -1.50152  -1.08632  -1.07008
 Alpha  occ. eigenvalues --   -1.06966  -1.06925  -1.06014  -1.06009  -1.05980
 Alpha  occ. eigenvalues --   -1.04578  -1.04573  -1.04561  -1.03993  -1.03981
 Alpha  occ. eigenvalues --   -1.03748  -1.03386  -1.03356  -1.03334  -1.03028
 Alpha  occ. eigenvalues --   -1.02994  -1.02266  -1.02234  -1.02224  -1.02093
 Alpha  occ. eigenvalues --   -1.02007  -1.01977  -1.01908  -1.01889  -1.01772
 Alpha  occ. eigenvalues --   -1.01758  -1.01739  -1.01624  -1.01584  -1.01566
 Alpha  occ. eigenvalues --   -1.01297  -1.00829  -1.00750  -1.00686  -1.00680
 Alpha  occ. eigenvalues --   -1.00041  -0.99987  -0.99925  -0.96161  -0.89224
 Alpha  occ. eigenvalues --   -0.85679  -0.85613  -0.85603  -0.85527  -0.85509
 Alpha  occ. eigenvalues --   -0.85459  -0.85456  -0.85453  -0.85412  -0.84252
 Alpha  occ. eigenvalues --   -0.82466  -0.81143  -0.71905  -0.69602  -0.65053
 Alpha  occ. eigenvalues --   -0.62340  -0.61726  -0.61666  -0.61642  -0.60550
 Alpha  occ. eigenvalues --   -0.58977  -0.58957  -0.58935  -0.58882  -0.58817
 Alpha  occ. eigenvalues --   -0.58809  -0.58780  -0.58740  -0.58561  -0.57399
 Alpha  occ. eigenvalues --   -0.57360  -0.57343  -0.57044  -0.56724  -0.56514
 Alpha  occ. eigenvalues --   -0.56467  -0.56425  -0.56046  -0.55900  -0.55365
 Alpha  occ. eigenvalues --   -0.55353  -0.55317  -0.54448  -0.54153  -0.54134
 Alpha  occ. eigenvalues --   -0.53939  -0.53726  -0.53682  -0.53664  -0.52713
 Alpha  occ. eigenvalues --   -0.52636  -0.52605  -0.52500  -0.52463  -0.51485
 Alpha  occ. eigenvalues --   -0.51470  -0.51444  -0.51353  -0.51298  -0.50765
 Alpha  occ. eigenvalues --   -0.50562  -0.50533  -0.50482  -0.50394  -0.50321
 Alpha  occ. eigenvalues --   -0.50290  -0.50050  -0.50009  -0.49982  -0.49734
 Alpha  occ. eigenvalues --   -0.49636  -0.49592  -0.49498  -0.49473  -0.49287
 Alpha  occ. eigenvalues --   -0.49239  -0.49203  -0.49150  -0.49101  -0.49034
 Alpha  occ. eigenvalues --   -0.48697  -0.48534  -0.48513  -0.48453  -0.47647
 Alpha  occ. eigenvalues --   -0.47619  -0.47132  -0.46479  -0.46049  -0.46027
 Alpha  occ. eigenvalues --   -0.45893  -0.45810  -0.45753  -0.45619  -0.45222
 Alpha  occ. eigenvalues --   -0.45141  -0.45138  -0.44766  -0.44581  -0.44491
 Alpha  occ. eigenvalues --   -0.44476  -0.44444  -0.44301  -0.44207  -0.44170
 Alpha  occ. eigenvalues --   -0.43474  -0.43068  -0.42549  -0.42512  -0.42431
 Alpha  occ. eigenvalues --   -0.42339  -0.42193  -0.42169  -0.42164  -0.41637
 Alpha  occ. eigenvalues --   -0.41619  -0.41592  -0.41029  -0.40980  -0.40763
 Alpha  occ. eigenvalues --   -0.40756  -0.40722  -0.40353  -0.40337  -0.40310
 Alpha  occ. eigenvalues --   -0.40196  -0.40158  -0.40147  -0.40113  -0.39848
 Alpha  occ. eigenvalues --   -0.39367  -0.39262  -0.39241  -0.39124  -0.39068
 Alpha  occ. eigenvalues --   -0.38898  -0.38866  -0.38808  -0.38774  -0.38697
 Alpha  occ. eigenvalues --   -0.38301  -0.38262  -0.38213  -0.37994  -0.37213
 Alpha  occ. eigenvalues --   -0.37174  -0.34878  -0.34847  -0.33633  -0.30281
 Alpha  occ. eigenvalues --   -0.25956
 Alpha virt. eigenvalues --   -0.12255  -0.06422  -0.06357  -0.04919  -0.04879
 Alpha virt. eigenvalues --   -0.04760  -0.01530  -0.01421  -0.01378  -0.01173
 Alpha virt. eigenvalues --   -0.00937  -0.00926  -0.00899  -0.00166  -0.00102

  Beta  occ. eigenvalues -- -197.11062-129.99123-129.99054-129.99037-101.62744
  Beta  occ. eigenvalues --  -22.43465 -19.28544 -19.28508 -19.28454 -19.28405
  Beta  occ. eigenvalues --  -19.28386 -19.28366 -19.28352 -19.28349 -19.28341
  Beta  occ. eigenvalues --  -19.28279 -19.28257 -19.28162 -19.26950 -19.26913
  Beta  occ. eigenvalues --  -19.26907 -19.26862 -19.26854 -19.26826 -19.26824
  Beta  occ. eigenvalues --  -19.26821 -19.26816 -19.26812 -19.26797 -19.26789
  Beta  occ. eigenvalues --  -19.26767 -19.26760 -19.26759 -19.26759 -19.26753
  Beta  occ. eigenvalues --  -19.26751 -19.26733 -19.26726 -19.26717 -19.26703
  Beta  occ. eigenvalues --  -19.26648 -19.26597 -19.24790 -19.24766 -19.24729
  Beta  occ. eigenvalues --  -19.24706 -18.93961 -18.91745 -18.91729 -13.36536
  Beta  occ. eigenvalues --  -13.36465 -13.36441 -10.69462 -10.69458 -10.69456
  Beta  occ. eigenvalues --  -10.69391 -10.69387 -10.69386 -10.69369 -10.69365
  Beta  occ. eigenvalues --  -10.69359 -10.33248 -10.32267 -10.31919 -10.31112
  Beta  occ. eigenvalues --  -10.31100 -10.31058 -10.30509 -10.30435  -9.53201
  Beta  occ. eigenvalues --   -7.29064  -7.27595  -7.27591  -3.21134  -3.21091
  Beta  occ. eigenvalues --   -3.21069  -3.21044  -3.21042  -3.21020  -3.21015
  Beta  occ. eigenvalues --   -3.21009  -3.20999  -3.20886  -3.20875  -3.20843
  Beta  occ. eigenvalues --   -2.74891  -1.85352  -1.85290  -1.85280  -1.85250
  Beta  occ. eigenvalues --   -1.85141  -1.85073  -1.85059  -1.85041  -1.85024
  Beta  occ. eigenvalues --   -1.85013  -1.85003  -1.84945  -1.84394  -1.84284
  Beta  occ. eigenvalues --   -1.84267  -1.84253  -1.84219  -1.84209  -1.84151
  Beta  occ. eigenvalues --   -1.84136  -1.84110  -1.84101  -1.84073  -1.84061
  Beta  occ. eigenvalues --   -1.83964  -1.83922  -1.83886  -1.83878  -1.83863
  Beta  occ. eigenvalues --   -1.83833  -1.83811  -1.83800  -1.83791  -1.83696
  Beta  occ. eigenvalues --   -1.83685  -1.83679  -1.80764  -1.76011  -1.75978
  Beta  occ. eigenvalues --   -1.50236  -1.50169  -1.50152  -1.08615  -1.06989
  Beta  occ. eigenvalues --   -1.06943  -1.06897  -1.06013  -1.06007  -1.05979
  Beta  occ. eigenvalues --   -1.04580  -1.04573  -1.04560  -1.03995  -1.03980
  Beta  occ. eigenvalues --   -1.03681  -1.03356  -1.03315  -1.03298  -1.03027
  Beta  occ. eigenvalues --   -1.02987  -1.02248  -1.02209  -1.02207  -1.02084
  Beta  occ. eigenvalues --   -1.02002  -1.01964  -1.01903  -1.01875  -1.01768
  Beta  occ. eigenvalues --   -1.01755  -1.01736  -1.01621  -1.01582  -1.01550
  Beta  occ. eigenvalues --   -1.01297  -1.00789  -1.00749  -1.00685  -1.00680
  Beta  occ. eigenvalues --   -0.99906  -0.99855  -0.99808  -0.96382  -0.89873
  Beta  occ. eigenvalues --   -0.85679  -0.85613  -0.85603  -0.85527  -0.85509
  Beta  occ. eigenvalues --   -0.85459  -0.85456  -0.85453  -0.85412  -0.84784
  Beta  occ. eigenvalues --   -0.84344  -0.82706  -0.72156  -0.69721  -0.65294
  Beta  occ. eigenvalues --   -0.62340  -0.61726  -0.61666  -0.61642  -0.60754
  Beta  occ. eigenvalues --   -0.58974  -0.58956  -0.58933  -0.58807  -0.58796
  Beta  occ. eigenvalues --   -0.58773  -0.58752  -0.58683  -0.58561  -0.57361
  Beta  occ. eigenvalues --   -0.57216  -0.57174  -0.57002  -0.56893  -0.56517
  Beta  occ. eigenvalues --   -0.56434  -0.56389  -0.55856  -0.55642  -0.55345
  Beta  occ. eigenvalues --   -0.55335  -0.55317  -0.54649  -0.54146  -0.54125
  Beta  occ. eigenvalues --   -0.53929  -0.53688  -0.53653  -0.53622  -0.52768
  Beta  occ. eigenvalues --   -0.52654  -0.52593  -0.52481  -0.52458  -0.51459
  Beta  occ. eigenvalues --   -0.51445  -0.51436  -0.51295  -0.51223  -0.50952
  Beta  occ. eigenvalues --   -0.50547  -0.50475  -0.50458  -0.50332  -0.50253
  Beta  occ. eigenvalues --   -0.50167  -0.50020  -0.50006  -0.49949  -0.49681
  Beta  occ. eigenvalues --   -0.49612  -0.49556  -0.49487  -0.49462  -0.49286
  Beta  occ. eigenvalues --   -0.49218  -0.49200  -0.49124  -0.49088  -0.49015
  Beta  occ. eigenvalues --   -0.48692  -0.48529  -0.48514  -0.48446  -0.47788
  Beta  occ. eigenvalues --   -0.47583  -0.47559  -0.46003  -0.45907  -0.45869
  Beta  occ. eigenvalues --   -0.45824  -0.45673  -0.45567  -0.45222  -0.45161
  Beta  occ. eigenvalues --   -0.45142  -0.45048  -0.44765  -0.44579  -0.44475
  Beta  occ. eigenvalues --   -0.44424  -0.44413  -0.44281  -0.44186  -0.44156
  Beta  occ. eigenvalues --   -0.43468  -0.43175  -0.42489  -0.42457  -0.42399
  Beta  occ. eigenvalues --   -0.42271  -0.42248  -0.42149  -0.42131  -0.41622
  Beta  occ. eigenvalues --   -0.41599  -0.41569  -0.41354  -0.41035  -0.40936
  Beta  occ. eigenvalues --   -0.40750  -0.40691  -0.40656  -0.40338  -0.40329
  Beta  occ. eigenvalues --   -0.40294  -0.40146  -0.40135  -0.40124  -0.39790
  Beta  occ. eigenvalues --   -0.39614  -0.39365  -0.39168  -0.39095  -0.39083
  Beta  occ. eigenvalues --   -0.38894  -0.38838  -0.38815  -0.38762  -0.38712
  Beta  occ. eigenvalues --   -0.38658  -0.38299  -0.38258  -0.38209  -0.37823
  Beta  occ. eigenvalues --   -0.37215  -0.37168  -0.35832  -0.35795  -0.33906
  Beta  occ. eigenvalues --   -0.30897
  Beta virt. eigenvalues --   -0.06421  -0.06357  -0.04918  -0.04878  -0.04759
  Beta virt. eigenvalues --   -0.01526  -0.01416  -0.01373  -0.01167  -0.00932
  Beta virt. eigenvalues --   -0.00921  -0.00895  -0.00155  -0.00089  -0.00052

 Mulliken charges and spin densities:
               1          2
     1  Cl  -0.342165  -0.617572
     2  C   -0.035110  -0.092973
     3  C    0.012721   0.054572
     4  C   -0.034934  -0.088976
     5  C   -0.031574   0.056799
     6  C    0.006942  -0.112585
     7  C   -0.048284   0.056849
     8  H    0.050937   0.004090
     9  H    0.050862   0.003819
    10  H    0.055878  -0.002017
    11  H    0.056744   0.004947
    12  H    0.054565  -0.002003
    13  C    0.004355  -0.250238
    14  C   -0.046491  -0.024007
    15  H    0.076206   0.010401
    16  H    0.095240   0.001760
    17  H    0.086898  -0.001113
    18  O   -0.672990  -0.000570
    19  O   -0.672730  -0.000531
    20  O   -0.666831  -0.001635
    21  O   -0.673374  -0.000543
    22  W    1.720231   0.000360
    23  W    1.664103   0.000480
    24  W    1.675220   0.000169
    25  W    1.684332   0.000205
    26  W    1.664552   0.002691
    27  W    1.712777   0.002414
    28  W    1.614226   0.003353
    29  W    1.675085   0.002798
    30  O   -0.350016  -0.000534
    31  O   -0.394060  -0.000567
    32  O   -0.396126  -0.000609
    33  O   -0.389436  -0.000566
    34  O   -0.674210  -0.000287
    35  O   -0.679232  -0.000037
    36  O   -0.671313  -0.000141
    37  O   -0.674194  -0.000211
    38  O   -0.398235   0.002086
    39  O   -0.395330   0.002117
    40  O   -0.340206   0.000139
    41  O   -0.395322   0.002083
    42  O   -0.678741   0.000029
    43  O   -0.673085   0.000124
    44  O   -0.670634   0.000248
    45  O   -0.674852   0.000072
    46  O   -0.399135   0.002269
    47  O   -0.352241   0.002173
    48  O   -0.395591   0.001837
    49  O   -0.392490   0.002338
    50  W    1.662788   0.002734
    51  W    1.667797   0.002629
    52  W    1.678647   0.003831
    53  W    1.673641   0.002575
    54  O   -0.723900   0.000109
    55  O   -0.707765   0.000021
    56  O   -0.723364   0.000164
    57  O   -0.722152   0.000067
    58  O   -0.705585   0.000059
    59  O   -0.725389   0.000147
    60  O   -0.723436   0.000200
    61  O   -0.719736   0.000189
    62  O   -0.724289  -0.000187
    63  O   -0.707879  -0.000062
    64  O   -0.724022  -0.000213
    65  O   -0.725243  -0.000217
    66  O   -0.885478   0.005160
    67  O   -0.885483   0.007202
    68  O   -0.881891   0.006899
    69  O   -0.889971   0.006349
    70  K    0.849556   0.000189
    71  K    0.850331   0.000209
    72  K    0.846624   0.000214
    73  V    1.203253   0.938225
 Sum of Mulliken charges =  -1.00000   0.00000

 Dipole moment (field-independent basis, Debye):
    X=             28.3104    Y=            -13.5755    Z=            -30.5517  Tot=             43.8085
 Quadrupole moment (field-independent basis, Debye-Ang):
   XX=           -761.4503   YY=           -710.2753   ZZ=           -778.3182
   XY=            126.9267   XZ=            175.9431   YZ=            -91.9048

 Normal termination of Gaussian 16 at Sun Jun  2 16:02:51 2024.
