 Gaussian 16, Revision C.01,
 Gaussian 16:  ES64L-G16RevC.01  3-Jul-2019

 ----------------------------------------------------------------------
 # def2svp wb97xd scrf=(smd,solvent=acetonitrile) g09default scf=(xqc,m
 axcycle=64) force guess=read nosymm
 ----------------------------------------------------------------------

 ----------
 Title Card
 ----------
 Symbolic Z-matrix:
 Charge = -1 Multiplicity = 1

                          Input orientation:
 ---------------------------------------------------------------------
 Center     Atomic      Atomic             Coordinates (Angstroms)
 Number     Number       Type             X           Y           Z
 ---------------------------------------------------------------------
      1         17           0       -9.665964    8.279140   10.550871
      2          6           0       -8.341083    4.245881   12.216252
      3          6           0       -9.137359    3.930767   11.099118
      4          6           0      -10.048053    2.863510   11.214624
      5          6           0      -10.204621    2.179351   12.415381
      6          6           0       -9.441042    2.535842   13.527875
      7          6           0       -8.494177    3.556528   13.415814
      8          1           0       -7.588002    5.034060   12.145839
      9          1           0      -10.644605    2.577167   10.343905
     10          1           0      -10.923415    1.359217   12.483779
     11          1           0       -9.571607    2.009129   14.475803
     12          1           0       -7.870023    3.817161   14.274246
     13          6           0       -9.072262    4.671731    9.837969
     14          6           0       -8.400606    5.820671    9.612609
     15          1           0       -9.653421    4.238794    9.016059
     16          1           0       -8.403410    6.273234    8.619262
     17          1           0       -7.778776    6.304250   10.365722
     18          8           0       -0.975627   -1.799696    7.466798
     19          8           0       -8.392831   -1.333287    7.461576
     20          8           0       -7.022119    1.348033   10.472329
     21          8           0       -2.334241   -4.396638   10.554623
     22         74           0       -3.403077    0.688972    6.475092
     23         74           0       -5.989388   -3.818682    6.558085
     24         74           0       -3.611774    0.869119   11.419032
     25         74           0       -5.761474   -3.862944   11.482444
     26         74           0       -2.429225   -2.593046    6.403453
     27         74           0       -6.939734   -0.533381    6.372012
     28         74           0       -6.818404   -0.249271   11.559752
     29         74           0       -2.542413   -2.737041   11.601993
     30          8           0       -3.168408    1.870006    5.292239
     31          8           0       -6.122393   -5.069877    5.416599
     32          8           0       -2.683978    1.710502   12.568332
     33          8           0       -6.681038   -4.662393   12.665527
     34          8           0       -2.657059   -0.917153    5.588215
     35          8           0       -6.701273   -2.267757    5.620721
     36          8           0       -5.308871    0.550503   12.359835
     37          8           0       -4.049520   -3.531656   12.406763
     38          8           0        0.310840   -0.014886    9.280877
     39          8           0       -9.692023   -3.042730    9.327959
     40          8           0       -6.343460    3.430742    8.664322
     41          8           0       -3.011100   -6.493630    8.743976
     42          8           0       -1.780785    0.747524    7.473268
     43          8           0       -7.597327   -3.883518    7.541390
     44          8           0       -4.491376    2.195836   10.426917
     45          8           0       -4.873488   -5.231995   10.529609
     46          8           0       -1.599738   -3.538367    5.258381
     47          8           0       -7.817709    0.279480    5.180721
     48          8           0       -8.042518   -0.167934   12.734989
     49          8           0       -1.303952   -2.858125   12.758910
     50         74           0       -1.246925   -0.532262    8.837521
     51         74           0       -8.132987   -2.540058    8.874240
     52         74           0       -5.868673    1.858507    9.043442
     53         74           0       -3.495089   -4.919225    9.164288
     54          8           0       -4.210880   -3.112543    6.072757
     55          8           0       -5.150811   -0.062809    6.016446
     56          8           0       -6.168633   -1.997956   11.907398
     57          8           0       -3.171411   -0.989379   11.922710
     58          8           0       -4.352187    1.579864    7.831284
     59          8           0       -5.007017   -4.681709    7.923456
     60          8           0       -2.322565    0.565156   10.078444
     61          8           0       -7.045488   -3.614976   10.130234
     62          8           0       -2.568671   -3.909850    7.868715
     63          8           0       -6.808013    0.794631    7.802651
     64          8           0       -7.823997   -1.177223   10.138657
     65          8           0       -1.557222   -1.871195   10.138974
     66          8           0       -3.354410   -1.159494    8.009628
     67          8           0       -6.018214   -1.959397    8.033807
     68          8           0       -5.114841   -0.209145    9.943164
     69          8           0       -4.235556   -2.848292    9.974883
     70         19           0       -3.212345   -6.133637    5.646257
     71         19           0       -0.110942    0.050199   12.335173
     72         19           0       -9.285162   -2.830017   12.430964
     73         23           0       -4.682826   -1.540743    8.988915
 ---------------------------------------------------------------------

 SCF Done:  E(RwB97XD) =  -7327.70174399     A.U. after   10 cycles

 Alpha  occ. eigenvalues -- -197.29556-130.00099-130.00080-129.99975-101.48274
 Alpha  occ. eigenvalues --  -22.62668 -19.33670 -19.33662 -19.33661 -19.33638
 Alpha  occ. eigenvalues --  -19.30728 -19.30685 -19.30684 -19.30680 -19.30672
 Alpha  occ. eigenvalues --  -19.30668 -19.30663 -19.30631 -19.30551 -19.30377
 Alpha  occ. eigenvalues --  -19.30346 -19.30181 -19.29321 -19.29309 -19.29303
 Alpha  occ. eigenvalues --  -19.29278 -19.29269 -19.29254 -19.29222 -19.29196
 Alpha  occ. eigenvalues --  -19.29191 -19.29171 -19.29168 -19.29146 -19.29130
 Alpha  occ. eigenvalues --  -19.29098 -19.29090 -19.29075 -19.29075 -19.29057
 Alpha  occ. eigenvalues --  -19.29053 -19.28999 -19.28983 -19.28965 -19.28925
 Alpha  occ. eigenvalues --  -19.28852 -19.11626 -19.11618 -19.11609 -13.37505
 Alpha  occ. eigenvalues --  -13.37484 -13.37373 -10.70434 -10.70427 -10.70425
 Alpha  occ. eigenvalues --  -10.70413 -10.70406 -10.70405 -10.70304 -10.70297
 Alpha  occ. eigenvalues --  -10.70291 -10.29874 -10.29350 -10.29292 -10.29075
 Alpha  occ. eigenvalues --  -10.28989 -10.28982 -10.28123 -10.27589  -9.38745
 Alpha  occ. eigenvalues --   -7.13571  -7.13524  -7.13516  -3.23322  -3.23318
 Alpha  occ. eigenvalues --   -3.23309  -3.23298  -3.23295  -3.23283  -3.23268
 Alpha  occ. eigenvalues --   -3.23260  -3.23228  -3.22986  -3.22977  -3.22793
 Alpha  occ. eigenvalues --   -2.91879  -1.94253  -1.94217  -1.94207  -1.87722
 Alpha  occ. eigenvalues --   -1.87676  -1.87661  -1.87632  -1.87489  -1.87473
 Alpha  occ. eigenvalues --   -1.87469  -1.87453  -1.87428  -1.87286  -1.87254
 Alpha  occ. eigenvalues --   -1.87102  -1.86629  -1.86511  -1.86502  -1.86486
 Alpha  occ. eigenvalues --   -1.86460  -1.86439  -1.86346  -1.86337  -1.86319
 Alpha  occ. eigenvalues --   -1.86300  -1.86295  -1.86265  -1.86151  -1.86137
 Alpha  occ. eigenvalues --   -1.86127  -1.86118  -1.86048  -1.86032  -1.85994
 Alpha  occ. eigenvalues --   -1.85928  -1.85912  -1.85812  -1.85721  -1.85673
 Alpha  occ. eigenvalues --   -1.51191  -1.51175  -1.51070  -1.13082  -1.11314
 Alpha  occ. eigenvalues --   -1.11235  -1.11229  -1.08972  -1.08534  -1.08492
 Alpha  occ. eigenvalues --   -1.08315  -1.07571  -1.07516  -1.07502  -1.06900
 Alpha  occ. eigenvalues --   -1.06890  -1.06871  -1.06327  -1.06310  -1.05313
 Alpha  occ. eigenvalues --   -1.05302  -1.04978  -1.04974  -1.04967  -1.04190
 Alpha  occ. eigenvalues --   -1.04181  -1.04169  -1.04025  -1.04007  -1.03994
 Alpha  occ. eigenvalues --   -1.03938  -1.03913  -1.03895  -1.03762  -1.03734
 Alpha  occ. eigenvalues --   -1.03615  -1.03550  -1.03306  -1.03262  -1.03115
 Alpha  occ. eigenvalues --   -1.03101  -1.03022  -1.02960  -0.94375  -0.86659
 Alpha  occ. eigenvalues --   -0.86643  -0.86547  -0.86499  -0.86469  -0.86453
 Alpha  occ. eigenvalues --   -0.86450  -0.86447  -0.86359  -0.86322  -0.82812
 Alpha  occ. eigenvalues --   -0.79773  -0.71506  -0.69685  -0.68020  -0.64616
 Alpha  occ. eigenvalues --   -0.63990  -0.63915  -0.63906  -0.63335  -0.63316
 Alpha  occ. eigenvalues --   -0.63184  -0.62958  -0.62698  -0.62608  -0.62019
 Alpha  occ. eigenvalues --   -0.61630  -0.61620  -0.61522  -0.61257  -0.61245
 Alpha  occ. eigenvalues --   -0.61175  -0.60414  -0.59491  -0.59476  -0.59459
 Alpha  occ. eigenvalues --   -0.59422  -0.59373  -0.58580  -0.58000  -0.57974
 Alpha  occ. eigenvalues --   -0.57881  -0.57083  -0.57042  -0.57014  -0.56299
 Alpha  occ. eigenvalues --   -0.56278  -0.56121  -0.55702  -0.54861  -0.54808
 Alpha  occ. eigenvalues --   -0.54771  -0.54530  -0.54242  -0.54110  -0.54092
 Alpha  occ. eigenvalues --   -0.54017  -0.53959  -0.53234  -0.53195  -0.53066
 Alpha  occ. eigenvalues --   -0.53033  -0.52904  -0.52701  -0.52664  -0.52637
 Alpha  occ. eigenvalues --   -0.52589  -0.52514  -0.52466  -0.52453  -0.51607
 Alpha  occ. eigenvalues --   -0.51584  -0.51331  -0.51309  -0.51267  -0.51227
 Alpha  occ. eigenvalues --   -0.51173  -0.51165  -0.50938  -0.50760  -0.50582
 Alpha  occ. eigenvalues --   -0.50564  -0.50557  -0.49873  -0.49857  -0.49298
 Alpha  occ. eigenvalues --   -0.49282  -0.49253  -0.49219  -0.49162  -0.49072
 Alpha  occ. eigenvalues --   -0.48898  -0.48082  -0.48030  -0.47928  -0.47708
 Alpha  occ. eigenvalues --   -0.47387  -0.47287  -0.47245  -0.46998  -0.46926
 Alpha  occ. eigenvalues --   -0.46812  -0.46553  -0.46488  -0.46472  -0.46195
 Alpha  occ. eigenvalues --   -0.46144  -0.46108  -0.45596  -0.45099  -0.44918
 Alpha  occ. eigenvalues --   -0.44875  -0.44212  -0.44145  -0.44035  -0.43523
 Alpha  occ. eigenvalues --   -0.43275  -0.43224  -0.43113  -0.43097  -0.43064
 Alpha  occ. eigenvalues --   -0.42700  -0.42676  -0.42654  -0.42587  -0.42578
 Alpha  occ. eigenvalues --   -0.42495  -0.42458  -0.42439  -0.42282  -0.42265
 Alpha  occ. eigenvalues --   -0.42247  -0.42022  -0.41911  -0.41853  -0.41833
 Alpha  occ. eigenvalues --   -0.41176  -0.41153  -0.41134  -0.41011  -0.40544
 Alpha  occ. eigenvalues --   -0.40513  -0.40494  -0.40390  -0.39444  -0.39428
 Alpha  occ. eigenvalues --   -0.36978  -0.32545  -0.29142  -0.25062  -0.25039
 Alpha  occ. eigenvalues --   -0.23576
 Alpha virt. eigenvalues --   -0.09552  -0.09321  -0.08548  -0.08483  -0.07071
 Alpha virt. eigenvalues --   -0.07044  -0.06941  -0.04562  -0.04215  -0.04171
 Alpha virt. eigenvalues --   -0.03727  -0.03509  -0.03461  -0.03260  -0.03156

 Mulliken charges:
               1
     1  Cl  -0.898948
     2  C   -0.079057
     3  C    0.047991
     4  C   -0.078319
     5  C   -0.033844
     6  C   -0.033660
     7  C   -0.050004
     8  H    0.030680
     9  H    0.029739
    10  H    0.041293
    11  H    0.037074
    12  H    0.040151
    13  C   -0.122316
    14  C    0.021381
    15  H    0.021822
    16  H    0.038287
    17  H    0.024722
    18  O   -0.663989
    19  O   -0.663872
    20  O   -0.655471
    21  O   -0.664322
    22  W    1.736600
    23  W    1.678360
    24  W    1.688056
    25  W    1.698433
    26  W    1.678181
    27  W    1.730284
    28  W    1.622173
    29  W    1.689431
    30  O   -0.320015
    31  O   -0.365702
    32  O   -0.367813
    33  O   -0.360553
    34  O   -0.665758
    35  O   -0.671679
    36  O   -0.662089
    37  O   -0.665199
    38  O   -0.368388
    39  O   -0.365040
    40  O   -0.297383
    41  O   -0.365293
    42  O   -0.670955
    43  O   -0.664387
    44  O   -0.662015
    45  O   -0.666313
    46  O   -0.369239
    47  O   -0.320512
    48  O   -0.362551
    49  O   -0.362234
    50  W    1.676699
    51  W    1.682176
    52  W    1.685690
    53  W    1.688218
    54  O   -0.726078
    55  O   -0.709524
    56  O   -0.726771
    57  O   -0.724111
    58  O   -0.707598
    59  O   -0.728207
    60  O   -0.726071
    61  O   -0.722137
    62  O   -0.725795
    63  O   -0.708932
    64  O   -0.725149
    65  O   -0.727274
    66  O   -0.802950
    67  O   -0.802101
    68  O   -0.798713
    69  O   -0.810029
    70  K    0.863176
    71  K    0.863527
    72  K    0.860346
    73  V    1.193868
 Sum of Mulliken charges =  -1.00000

 Dipole moment (field-independent basis, Debye):
    X=             50.4450    Y=            -51.3125    Z=            -38.6986  Tot=             81.7022
 Quadrupole moment (field-independent basis, Debye-Ang):
   XX=          -1043.6366   YY=           -891.0905   ZZ=           -914.1167
   XY=            449.4669   XZ=            451.6162   YZ=           -479.1511

 Normal termination of Gaussian 16 at Sun Jun  2 16:46:49 2024.
