 Gaussian 16, Revision C.01,
 Gaussian 16:  ES64L-G16RevC.01  3-Jul-2019

 ----------------------------------------------------------------------
 # def2svp wb97xd scrf=(smd,solvent=acetonitrile) g09default scf=(xqc,m
 axcycle=64) force guess=read nosymm
 ----------------------------------------------------------------------

 ----------
 Title Card
 ----------
 Symbolic Z-matrix:
 Charge = -1 Multiplicity = 1

                          Input orientation:
 ---------------------------------------------------------------------
 Center     Atomic      Atomic             Coordinates (Angstroms)
 Number     Number       Type             X           Y           Z
 ---------------------------------------------------------------------
      1         17           0       -9.665964    8.279140   10.550871
      2          6           0       -8.341083    4.245881   12.216252
      3          6           0       -9.137359    3.930767   11.099118
      4          6           0      -10.048053    2.863510   11.214624
      5          6           0      -10.204621    2.179351   12.415381
      6          6           0       -9.441042    2.535842   13.527875
      7          6           0       -8.494177    3.556528   13.415814
      8          1           0       -7.588002    5.034060   12.145839
      9          1           0      -10.644605    2.577167   10.343905
     10          1           0      -10.923415    1.359217   12.483779
     11          1           0       -9.571607    2.009129   14.475803
     12          1           0       -7.870023    3.817161   14.274246
     13          6           0       -9.072262    4.671731    9.837969
     14          6           0       -8.400606    5.820671    9.612609
     15          1           0       -9.653421    4.238794    9.016059
     16          1           0       -8.403410    6.273234    8.619262
     17          1           0       -7.778776    6.304250   10.365722
     18          8           0       -0.975627   -1.799696    7.466798
     19          8           0       -8.392831   -1.333287    7.461576
     20          8           0       -7.022119    1.348033   10.472329
     21          8           0       -2.334241   -4.396638   10.554623
     22         74           0       -3.403077    0.688972    6.475092
     23         74           0       -5.989388   -3.818682    6.558085
     24         74           0       -3.611774    0.869119   11.419032
     25         74           0       -5.761474   -3.862944   11.482444
     26         74           0       -2.429225   -2.593046    6.403453
     27         74           0       -6.939734   -0.533381    6.372012
     28         74           0       -6.818404   -0.249271   11.559752
     29         74           0       -2.542413   -2.737041   11.601993
     30          8           0       -3.168408    1.870006    5.292239
     31          8           0       -6.122393   -5.069877    5.416599
     32          8           0       -2.683978    1.710502   12.568332
     33          8           0       -6.681038   -4.662393   12.665527
     34          8           0       -2.657059   -0.917153    5.588215
     35          8           0       -6.701273   -2.267757    5.620721
     36          8           0       -5.308871    0.550503   12.359835
     37          8           0       -4.049520   -3.531656   12.406763
     38          8           0        0.310840   -0.014886    9.280877
     39          8           0       -9.692023   -3.042730    9.327959
     40          8           0       -6.343460    3.430742    8.664322
     41          8           0       -3.011100   -6.493630    8.743976
     42          8           0       -1.780785    0.747524    7.473268
     43          8           0       -7.597327   -3.883518    7.541390
     44          8           0       -4.491376    2.195836   10.426917
     45          8           0       -4.873488   -5.231995   10.529609
     46          8           0       -1.599738   -3.538367    5.258381
     47          8           0       -7.817709    0.279480    5.180721
     48          8           0       -8.042518   -0.167934   12.734989
     49          8           0       -1.303952   -2.858125   12.758910
     50         74           0       -1.246925   -0.532262    8.837521
     51         74           0       -8.132987   -2.540058    8.874240
     52         74           0       -5.868673    1.858507    9.043442
     53         74           0       -3.495089   -4.919225    9.164288
     54          8           0       -4.210880   -3.112543    6.072757
     55          8           0       -5.150811   -0.062809    6.016446
     56          8           0       -6.168633   -1.997956   11.907398
     57          8           0       -3.171411   -0.989379   11.922710
     58          8           0       -4.352187    1.579864    7.831284
     59          8           0       -5.007017   -4.681709    7.923456
     60          8           0       -2.322565    0.565156   10.078444
     61          8           0       -7.045488   -3.614976   10.130234
     62          8           0       -2.568671   -3.909850    7.868715
     63          8           0       -6.808013    0.794631    7.802651
     64          8           0       -7.823997   -1.177223   10.138657
     65          8           0       -1.557222   -1.871195   10.138974
     66          8           0       -3.354410   -1.159494    8.009628
     67          8           0       -6.018214   -1.959397    8.033807
     68          8           0       -5.114841   -0.209145    9.943164
     69          8           0       -4.235556   -2.848292    9.974883
     70         19           0       -3.212345   -6.133637    5.646257
     71         19           0       -0.110942    0.050199   12.335173
     72         19           0       -9.285162   -2.830017   12.430964
     73         23           0       -4.682826   -1.540743    8.988915
 ---------------------------------------------------------------------

 SCF Done:  E(UwB97XD) =  -7327.70177719     A.U. after   34 cycles

 Alpha  occ. eigenvalues --  -19.24721 -18.94285 -18.93185 -18.93174 -13.36531
 Alpha  occ. eigenvalues --  -13.36464 -13.36441 -10.69458 -10.69454 -10.69452
 Alpha  occ. eigenvalues --  -10.69391 -10.69387 -10.69386 -10.69370 -10.69366
 Alpha  occ. eigenvalues --  -10.69359 -10.32989 -10.32155 -10.31970 -10.31017
 Alpha  occ. eigenvalues --  -10.30984 -10.30963 -10.30571 -10.30495  -9.52719
 Alpha  occ. eigenvalues --   -7.27604  -7.27257  -7.27252  -3.21134  -3.21099
 Alpha  occ. eigenvalues --   -3.21069  -3.21048  -3.21043  -3.21026  -3.21020
 Alpha  occ. eigenvalues --   -3.21014  -3.21005  -3.20885  -3.20880  -3.20847
 Alpha  occ. eigenvalues --   -2.78943  -1.85358  -1.85295  -1.85286  -1.85258
 Alpha  occ. eigenvalues --   -1.85147  -1.85079  -1.85064  -1.85047  -1.85032
 Alpha  occ. eigenvalues --   -1.85021  -1.85009  -1.84953  -1.84397  -1.84286
 Alpha  occ. eigenvalues --   -1.84271  -1.84255  -1.84222  -1.84212  -1.84154
 Alpha  occ. eigenvalues --   -1.84138  -1.84113  -1.84104  -1.84076  -1.84063
 Alpha  occ. eigenvalues --   -1.83967  -1.83925  -1.83888  -1.83880  -1.83866
 Alpha  occ. eigenvalues --   -1.83836  -1.83813  -1.83802  -1.83794  -1.83699
 Alpha  occ. eigenvalues --   -1.83688  -1.83681  -1.82091  -1.81743  -1.81735
 Alpha  occ. eigenvalues --   -1.50232  -1.50170  -1.50152  -1.08632  -1.07009
 Alpha  occ. eigenvalues --   -1.06966  -1.06924  -1.06015  -1.06009  -1.05980
 Alpha  occ. eigenvalues --   -1.04580  -1.04573  -1.04562  -1.03993  -1.03981
 Alpha  occ. eigenvalues --   -1.03744  -1.03385  -1.03354  -1.03333  -1.03028
 Alpha  occ. eigenvalues --   -1.02995  -1.02267  -1.02235  -1.02225  -1.02095
 Alpha  occ. eigenvalues --   -1.02009  -1.01978  -1.01909  -1.01890  -1.01772
 Alpha  occ. eigenvalues --   -1.01759  -1.01740  -1.01624  -1.01584  -1.01567
 Alpha  occ. eigenvalues --   -1.01298  -1.00828  -1.00751  -1.00687  -1.00680
 Alpha  occ. eigenvalues --   -1.00037  -0.99984  -0.99920  -0.96167  -0.89233
 Alpha  occ. eigenvalues --   -0.85675  -0.85613  -0.85604  -0.85524  -0.85505
 Alpha  occ. eigenvalues --   -0.85459  -0.85457  -0.85454  -0.85412  -0.84256
 Alpha  occ. eigenvalues --   -0.82474  -0.81128  -0.71909  -0.69607  -0.65057
 Alpha  occ. eigenvalues --   -0.62341  -0.61728  -0.61666  -0.61641  -0.60556
 Alpha  occ. eigenvalues --   -0.58978  -0.58958  -0.58936  -0.58883  -0.58818
 Alpha  occ. eigenvalues --   -0.58809  -0.58781  -0.58741  -0.58561  -0.57399
 Alpha  occ. eigenvalues --   -0.57359  -0.57342  -0.57044  -0.56732  -0.56514
 Alpha  occ. eigenvalues --   -0.56467  -0.56425  -0.56045  -0.55898  -0.55365
 Alpha  occ. eigenvalues --   -0.55353  -0.55317  -0.54450  -0.54154  -0.54134
 Alpha  occ. eigenvalues --   -0.53941  -0.53726  -0.53681  -0.53664  -0.52717
 Alpha  occ. eigenvalues --   -0.52640  -0.52606  -0.52501  -0.52464  -0.51485
 Alpha  occ. eigenvalues --   -0.51471  -0.51446  -0.51356  -0.51302  -0.50769
 Alpha  occ. eigenvalues --   -0.50563  -0.50533  -0.50484  -0.50396  -0.50324
 Alpha  occ. eigenvalues --   -0.50290  -0.50052  -0.50012  -0.49984  -0.49736
 Alpha  occ. eigenvalues --   -0.49638  -0.49595  -0.49499  -0.49475  -0.49285
 Alpha  occ. eigenvalues --   -0.49237  -0.49203  -0.49149  -0.49101  -0.49034
 Alpha  occ. eigenvalues --   -0.48699  -0.48535  -0.48515  -0.48456  -0.47648
 Alpha  occ. eigenvalues --   -0.47621  -0.47134  -0.46479  -0.46048  -0.46027
 Alpha  occ. eigenvalues --   -0.45892  -0.45818  -0.45753  -0.45620  -0.45222
 Alpha  occ. eigenvalues --   -0.45142  -0.45139  -0.44766  -0.44580  -0.44490
 Alpha  occ. eigenvalues --   -0.44475  -0.44443  -0.44301  -0.44208  -0.44171
 Alpha  occ. eigenvalues --   -0.43473  -0.43073  -0.42548  -0.42512  -0.42431
 Alpha  occ. eigenvalues --   -0.42338  -0.42194  -0.42170  -0.42168  -0.41637
 Alpha  occ. eigenvalues --   -0.41619  -0.41593  -0.41030  -0.40981  -0.40764
 Alpha  occ. eigenvalues --   -0.40756  -0.40723  -0.40355  -0.40338  -0.40311
 Alpha  occ. eigenvalues --   -0.40197  -0.40159  -0.40149  -0.40113  -0.39849
 Alpha  occ. eigenvalues --   -0.39367  -0.39261  -0.39238  -0.39124  -0.39066
 Alpha  occ. eigenvalues --   -0.38898  -0.38866  -0.38806  -0.38772  -0.38696
 Alpha  occ. eigenvalues --   -0.38301  -0.38262  -0.38213  -0.38001  -0.37213
 Alpha  occ. eigenvalues --   -0.37174  -0.34861  -0.34828  -0.33636  -0.30303
 Alpha  occ. eigenvalues --   -0.25938
 Alpha virt. eigenvalues --   -0.12226  -0.06421  -0.06356  -0.04916  -0.04877
 Alpha virt. eigenvalues --   -0.04761  -0.01528  -0.01419  -0.01378  -0.01172
 Alpha virt. eigenvalues --   -0.00935  -0.00923  -0.00897  -0.00165  -0.00100

  Beta  occ. eigenvalues -- -197.11039-129.99119-129.99054-129.99037-101.62715
  Beta  occ. eigenvalues --  -22.43444 -19.28543 -19.28508 -19.28455 -19.28407
  Beta  occ. eigenvalues --  -19.28387 -19.28370 -19.28353 -19.28349 -19.28340
  Beta  occ. eigenvalues --  -19.28280 -19.28257 -19.28162 -19.26948 -19.26914
  Beta  occ. eigenvalues --  -19.26908 -19.26861 -19.26852 -19.26826 -19.26825
  Beta  occ. eigenvalues --  -19.26824 -19.26816 -19.26811 -19.26798 -19.26788
  Beta  occ. eigenvalues --  -19.26769 -19.26761 -19.26759 -19.26758 -19.26754
  Beta  occ. eigenvalues --  -19.26751 -19.26735 -19.26726 -19.26716 -19.26704
  Beta  occ. eigenvalues --  -19.26649 -19.26599 -19.24781 -19.24757 -19.24723
  Beta  occ. eigenvalues --  -19.24696 -18.93940 -18.91726 -18.91705 -13.36531
  Beta  occ. eigenvalues --  -13.36464 -13.36441 -10.69458 -10.69454 -10.69452
  Beta  occ. eigenvalues --  -10.69391 -10.69387 -10.69386 -10.69370 -10.69366
  Beta  occ. eigenvalues --  -10.69359 -10.33258 -10.32274 -10.31922 -10.31118
  Beta  occ. eigenvalues --  -10.31105 -10.31061 -10.30514 -10.30438  -9.53173
  Beta  occ. eigenvalues --   -7.29033  -7.27568  -7.27563  -3.21133  -3.21092
  Beta  occ. eigenvalues --   -3.21069  -3.21043  -3.21042  -3.21020  -3.21014
  Beta  occ. eigenvalues --   -3.21008  -3.20999  -3.20885  -3.20875  -3.20842
  Beta  occ. eigenvalues --   -2.74876  -1.85353  -1.85290  -1.85280  -1.85250
  Beta  occ. eigenvalues --   -1.85141  -1.85074  -1.85059  -1.85041  -1.85023
  Beta  occ. eigenvalues --   -1.85013  -1.85002  -1.84944  -1.84394  -1.84284
  Beta  occ. eigenvalues --   -1.84268  -1.84253  -1.84219  -1.84209  -1.84151
  Beta  occ. eigenvalues --   -1.84136  -1.84110  -1.84101  -1.84073  -1.84060
  Beta  occ. eigenvalues --   -1.83965  -1.83922  -1.83885  -1.83877  -1.83863
  Beta  occ. eigenvalues --   -1.83833  -1.83810  -1.83799  -1.83790  -1.83696
  Beta  occ. eigenvalues --   -1.83685  -1.83679  -1.80750  -1.76004  -1.75959
  Beta  occ. eigenvalues --   -1.50232  -1.50170  -1.50152  -1.08615  -1.06989
  Beta  occ. eigenvalues --   -1.06943  -1.06897  -1.06014  -1.06006  -1.05980
  Beta  occ. eigenvalues --   -1.04581  -1.04574  -1.04561  -1.03995  -1.03981
  Beta  occ. eigenvalues --   -1.03678  -1.03355  -1.03314  -1.03297  -1.03028
  Beta  occ. eigenvalues --   -1.02987  -1.02249  -1.02211  -1.02208  -1.02085
  Beta  occ. eigenvalues --   -1.02004  -1.01965  -1.01904  -1.01876  -1.01767
  Beta  occ. eigenvalues --   -1.01756  -1.01737  -1.01621  -1.01582  -1.01551
  Beta  occ. eigenvalues --   -1.01298  -1.00788  -1.00750  -1.00686  -1.00681
  Beta  occ. eigenvalues --   -0.99902  -0.99851  -0.99803  -0.96389  -0.89887
  Beta  occ. eigenvalues --   -0.85675  -0.85613  -0.85604  -0.85524  -0.85505
  Beta  occ. eigenvalues --   -0.85459  -0.85457  -0.85453  -0.85412  -0.84767
  Beta  occ. eigenvalues --   -0.84347  -0.82707  -0.72162  -0.69727  -0.65299
  Beta  occ. eigenvalues --   -0.62340  -0.61728  -0.61665  -0.61641  -0.60762
  Beta  occ. eigenvalues --   -0.58975  -0.58957  -0.58934  -0.58807  -0.58797
  Beta  occ. eigenvalues --   -0.58773  -0.58752  -0.58684  -0.58561  -0.57360
  Beta  occ. eigenvalues --   -0.57216  -0.57173  -0.57004  -0.56900  -0.56517
  Beta  occ. eigenvalues --   -0.56434  -0.56389  -0.55854  -0.55641  -0.55346
  Beta  occ. eigenvalues --   -0.55335  -0.55317  -0.54653  -0.54146  -0.54125
  Beta  occ. eigenvalues --   -0.53932  -0.53689  -0.53653  -0.53622  -0.52774
  Beta  occ. eigenvalues --   -0.52655  -0.52594  -0.52482  -0.52459  -0.51460
  Beta  occ. eigenvalues --   -0.51446  -0.51437  -0.51299  -0.51227  -0.50959
  Beta  occ. eigenvalues --   -0.50550  -0.50476  -0.50460  -0.50334  -0.50253
  Beta  occ. eigenvalues --   -0.50167  -0.50022  -0.50009  -0.49950  -0.49683
  Beta  occ. eigenvalues --   -0.49614  -0.49558  -0.49488  -0.49464  -0.49284
  Beta  occ. eigenvalues --   -0.49216  -0.49200  -0.49123  -0.49088  -0.49014
  Beta  occ. eigenvalues --   -0.48694  -0.48531  -0.48515  -0.48449  -0.47793
  Beta  occ. eigenvalues --   -0.47585  -0.47561  -0.46011  -0.45907  -0.45870
  Beta  occ. eigenvalues --   -0.45823  -0.45673  -0.45567  -0.45222  -0.45162
  Beta  occ. eigenvalues --   -0.45143  -0.45048  -0.44766  -0.44578  -0.44474
  Beta  occ. eigenvalues --   -0.44423  -0.44412  -0.44280  -0.44187  -0.44156
  Beta  occ. eigenvalues --   -0.43468  -0.43180  -0.42488  -0.42457  -0.42399
  Beta  occ. eigenvalues --   -0.42274  -0.42252  -0.42148  -0.42131  -0.41622
  Beta  occ. eigenvalues --   -0.41600  -0.41570  -0.41359  -0.41036  -0.40937
  Beta  occ. eigenvalues --   -0.40750  -0.40692  -0.40657  -0.40340  -0.40329
  Beta  occ. eigenvalues --   -0.40295  -0.40148  -0.40137  -0.40125  -0.39792
  Beta  occ. eigenvalues --   -0.39613  -0.39366  -0.39167  -0.39093  -0.39081
  Beta  occ. eigenvalues --   -0.38893  -0.38838  -0.38814  -0.38760  -0.38710
  Beta  occ. eigenvalues --   -0.38657  -0.38299  -0.38259  -0.38210  -0.37801
  Beta  occ. eigenvalues --   -0.37215  -0.37168  -0.35812  -0.35773  -0.33912
  Beta  occ. eigenvalues --   -0.30895
  Beta virt. eigenvalues --   -0.06420  -0.06356  -0.04915  -0.04876  -0.04761
  Beta virt. eigenvalues --   -0.01523  -0.01415  -0.01373  -0.01166  -0.00931
  Beta virt. eigenvalues --   -0.00918  -0.00893  -0.00154  -0.00087  -0.00050

 Mulliken charges and spin densities:
               1          2
     1  Cl  -0.343220  -0.615811
     2  C   -0.035060  -0.093591
     3  C    0.012652   0.055128
     4  C   -0.034900  -0.089575
     5  C   -0.031560   0.057149
     6  C    0.007037  -0.113183
     7  C   -0.048194   0.057218
     8  H    0.050937   0.004114
     9  H    0.050872   0.003844
    10  H    0.055946  -0.002032
    11  H    0.056820   0.004973
    12  H    0.054561  -0.002015
    13  C    0.004623  -0.252486
    14  C   -0.046232  -0.022853
    15  H    0.076344   0.010479
    16  H    0.095199   0.001678
    17  H    0.086999  -0.001299
    18  O   -0.672978  -0.000569
    19  O   -0.672735  -0.000531
    20  O   -0.666819  -0.001633
    21  O   -0.673400  -0.000542
    22  W    1.720014   0.000360
    23  W    1.664096   0.000480
    24  W    1.675314   0.000169
    25  W    1.684333   0.000206
    26  W    1.664554   0.002693
    27  W    1.712633   0.002416
    28  W    1.614121   0.003354
    29  W    1.675061   0.002795
    30  O   -0.349947  -0.000533
    31  O   -0.394087  -0.000568
    32  O   -0.396238  -0.000610
    33  O   -0.389297  -0.000566
    34  O   -0.674086  -0.000285
    35  O   -0.679193  -0.000035
    36  O   -0.671266  -0.000139
    37  O   -0.674160  -0.000208
    38  O   -0.398182   0.002090
    39  O   -0.395166   0.002120
    40  O   -0.340298   0.000147
    41  O   -0.395347   0.002087
    42  O   -0.678722   0.000029
    43  O   -0.673100   0.000125
    44  O   -0.670529   0.000248
    45  O   -0.674829   0.000072
    46  O   -0.399126   0.002270
    47  O   -0.352243   0.002170
    48  O   -0.395607   0.001836
    49  O   -0.392405   0.002333
    50  W    1.662639   0.002740
    51  W    1.667732   0.002635
    52  W    1.678556   0.003847
    53  W    1.673573   0.002582
    54  O   -0.723984   0.000109
    55  O   -0.707707   0.000021
    56  O   -0.723357   0.000164
    57  O   -0.722169   0.000068
    58  O   -0.705495   0.000060
    59  O   -0.725361   0.000148
    60  O   -0.723492   0.000201
    61  O   -0.719740   0.000190
    62  O   -0.724285  -0.000187
    63  O   -0.707759  -0.000062
    64  O   -0.724148  -0.000213
    65  O   -0.725232  -0.000216
    66  O   -0.885417   0.005182
    67  O   -0.885404   0.007218
    68  O   -0.881946   0.006923
    69  O   -0.890090   0.006356
    70  K    0.849531   0.000189
    71  K    0.850182   0.000210
    72  K    0.846597   0.000213
    73  V    1.203588   0.938104
 Sum of Mulliken charges =  -1.00000   0.00000

 Dipole moment (field-independent basis, Debye):
    X=             28.2789    Y=            -13.5767    Z=            -30.5595  Tot=             43.7939
 Quadrupole moment (field-independent basis, Debye-Ang):
   XX=           -761.0273   YY=           -710.4800   ZZ=           -778.5112
   XY=            126.8373   XZ=            175.6444   YZ=            -91.9172

 Normal termination of Gaussian 16 at Sun Jun  2 16:36:54 2024.
