 Gaussian 16, Revision C.01,
 Gaussian 16:  ES64L-G16RevC.01  3-Jul-2019

 ----------------------------------------------------------------------
 # def2svp wb97xd scrf=(smd,solvent=acetonitrile) g09default scf=(xqc,m
 axcycle=64) force guess=read nosymm
 ----------------------------------------------------------------------

 ----------
 Title Card
 ----------
 Symbolic Z-matrix:
 Charge = -1 Multiplicity = 1

                          Input orientation:
 ---------------------------------------------------------------------
 Center     Atomic      Atomic             Coordinates (Angstroms)
 Number     Number       Type             X           Y           Z
 ---------------------------------------------------------------------
      1         17           0       -9.660150    8.278267   10.549537
      2          6           0       -8.341923    4.246861   12.215806
      3          6           0       -9.138015    3.930987   11.098746
      4          6           0      -10.049093    2.864214   11.214807
      5          6           0      -10.204933    2.179854   12.415549
      6          6           0       -9.440227    2.535820   13.527478
      7          6           0       -8.494194    3.557272   13.415301
      8          1           0       -7.590103    5.036304   12.145475
      9          1           0      -10.647028    2.579204   10.344624
     10          1           0      -10.924098    1.360122   12.484293
     11          1           0       -9.569350    2.008104   14.475031
     12          1           0       -7.870120    3.818380   14.273701
     13          6           0       -9.074056    4.672076    9.837671
     14          6           0       -8.404686    5.822588    9.613849
     15          1           0       -9.655274    4.239152    9.015777
     16          1           0       -8.410299    6.278419    8.622083
     17          1           0       -7.783215    6.305434   10.367618
     18          8           0       -0.975409   -1.800422    7.466629
     19          8           0       -8.391916   -1.333126    7.461677
     20          8           0       -7.021436    1.347858   10.472472
     21          8           0       -2.334284   -4.397143   10.554719
     22         74           0       -3.402420    0.689209    6.475605
     23         74           0       -5.989151   -3.818989    6.557963
     24         74           0       -3.611258    0.868848   11.418482
     25         74           0       -5.761284   -3.863483   11.482569
     26         74           0       -2.429073   -2.593055    6.403347
     27         74           0       -6.939018   -0.533605    6.371639
     28         74           0       -6.817645   -0.249573   11.559978
     29         74           0       -2.542561   -2.737857   11.602106
     30          8           0       -3.167886    1.870263    5.292737
     31          8           0       -6.122179   -5.070082    5.416400
     32          8           0       -2.683122    1.709792   12.567652
     33          8           0       -6.681131   -4.663071   12.665547
     34          8           0       -2.657237   -0.917323    5.588448
     35          8           0       -6.700896   -2.267970    5.620576
     36          8           0       -5.308045    0.550303   12.359681
     37          8           0       -4.049513   -3.532356   12.407109
     38          8           0        0.311681   -0.015957    9.280303
     39          8           0       -9.691624   -3.042820    9.327516
     40          8           0       -6.343425    3.430509    8.664252
     41          8           0       -3.011405   -6.494069    8.743772
     42          8           0       -1.780114    0.746787    7.473163
     43          8           0       -7.597172   -3.883440    7.541203
     44          8           0       -4.490766    2.195520   10.426634
     45          8           0       -4.873321   -5.232516   10.529936
     46          8           0       -1.599684   -3.537508    5.257769
     47          8           0       -7.816546    0.279175    5.180036
     48          8           0       -8.041233   -0.167541   12.735628
     49          8           0       -1.304574   -2.858765   12.759697
     50         74           0       -1.246273   -0.533238    8.837693
     51         74           0       -8.132359   -2.540112    8.874143
     52         74           0       -5.868725    1.858430    9.043299
     53         74           0       -3.495216   -4.919646    9.164206
     54          8           0       -4.210859   -3.112935    6.073079
     55          8           0       -5.150175   -0.063090    6.016947
     56          8           0       -6.168172   -1.998290   11.907587
     57          8           0       -3.171615   -0.990132   11.921681
     58          8           0       -4.351601    1.579643    7.831684
     59          8           0       -5.007311   -4.682086    7.923772
     60          8           0       -2.321868    0.564469   10.077999
     61          8           0       -7.044974   -3.615094   10.130120
     62          8           0       -2.568893   -3.910013    7.868894
     63          8           0       -6.807573    0.794512    7.802639
     64          8           0       -7.823376   -1.177360   10.138862
     65          8           0       -1.556513   -1.872017   10.139067
     66          8           0       -3.354071   -1.159872    8.010152
     67          8           0       -6.017392   -1.959836    8.033819
     68          8           0       -5.114329   -0.209582    9.943027
     69          8           0       -4.235664   -2.848758    9.975057
     70         19           0       -3.212492   -6.133403    5.646500
     71         19           0       -0.111794    0.049066   12.333818
     72         19           0       -9.284690   -2.828445   12.430118
     73         23           0       -4.682435   -1.541275    8.989123
 ---------------------------------------------------------------------

 SCF Done:  E(RwB97XD) =  -7327.70175813     A.U. after   10 cycles

 Alpha  occ. eigenvalues -- -197.29539-130.00096-130.00081-129.99974-101.48292
 Alpha  occ. eigenvalues --  -22.62653 -19.33662 -19.33656 -19.33655 -19.33630
 Alpha  occ. eigenvalues --  -19.30729 -19.30686 -19.30685 -19.30681 -19.30671
 Alpha  occ. eigenvalues --  -19.30667 -19.30665 -19.30630 -19.30553 -19.30374
 Alpha  occ. eigenvalues --  -19.30346 -19.30183 -19.29320 -19.29309 -19.29302
 Alpha  occ. eigenvalues --  -19.29277 -19.29269 -19.29255 -19.29222 -19.29197
 Alpha  occ. eigenvalues --  -19.29192 -19.29172 -19.29169 -19.29147 -19.29130
 Alpha  occ. eigenvalues --  -19.29099 -19.29090 -19.29078 -19.29076 -19.29055
 Alpha  occ. eigenvalues --  -19.29053 -19.28999 -19.28983 -19.28964 -19.28928
 Alpha  occ. eigenvalues --  -19.28853 -19.11611 -19.11603 -19.11594 -13.37501
 Alpha  occ. eigenvalues --  -13.37485 -13.37372 -10.70431 -10.70424 -10.70422
 Alpha  occ. eigenvalues --  -10.70415 -10.70408 -10.70407 -10.70302 -10.70296
 Alpha  occ. eigenvalues --  -10.70290 -10.29868 -10.29349 -10.29290 -10.29071
 Alpha  occ. eigenvalues --  -10.28984 -10.28975 -10.28111 -10.27570  -9.38764
 Alpha  occ. eigenvalues --   -7.13590  -7.13543  -7.13535  -3.23323  -3.23318
 Alpha  occ. eigenvalues --   -3.23308  -3.23299  -3.23295  -3.23282  -3.23268
 Alpha  occ. eigenvalues --   -3.23260  -3.23228  -3.22986  -3.22974  -3.22792
 Alpha  occ. eigenvalues --   -2.91869  -1.94243  -1.94208  -1.94198  -1.87722
 Alpha  occ. eigenvalues --   -1.87677  -1.87662  -1.87633  -1.87490  -1.87473
 Alpha  occ. eigenvalues --   -1.87469  -1.87453  -1.87429  -1.87284  -1.87254
 Alpha  occ. eigenvalues --   -1.87104  -1.86630  -1.86512  -1.86503  -1.86486
 Alpha  occ. eigenvalues --   -1.86461  -1.86439  -1.86346  -1.86337  -1.86320
 Alpha  occ. eigenvalues --   -1.86300  -1.86295  -1.86265  -1.86151  -1.86138
 Alpha  occ. eigenvalues --   -1.86128  -1.86119  -1.86048  -1.86032  -1.85993
 Alpha  occ. eigenvalues --   -1.85927  -1.85911  -1.85811  -1.85720  -1.85673
 Alpha  occ. eigenvalues --   -1.51188  -1.51176  -1.51070  -1.13079  -1.11312
 Alpha  occ. eigenvalues --   -1.11230  -1.11224  -1.08972  -1.08534  -1.08492
 Alpha  occ. eigenvalues --   -1.08316  -1.07571  -1.07515  -1.07501  -1.06900
 Alpha  occ. eigenvalues --   -1.06891  -1.06872  -1.06328  -1.06310  -1.05314
 Alpha  occ. eigenvalues --   -1.05304  -1.04979  -1.04975  -1.04967  -1.04191
 Alpha  occ. eigenvalues --   -1.04181  -1.04170  -1.04026  -1.04007  -1.03994
 Alpha  occ. eigenvalues --   -1.03938  -1.03914  -1.03896  -1.03763  -1.03735
 Alpha  occ. eigenvalues --   -1.03616  -1.03550  -1.03305  -1.03263  -1.03117
 Alpha  occ. eigenvalues --   -1.03103  -1.03023  -1.02962  -0.94372  -0.86657
 Alpha  occ. eigenvalues --   -0.86645  -0.86546  -0.86495  -0.86466  -0.86452
 Alpha  occ. eigenvalues --   -0.86450  -0.86449  -0.86359  -0.86321  -0.82810
 Alpha  occ. eigenvalues --   -0.79766  -0.71530  -0.69678  -0.68015  -0.64618
 Alpha  occ. eigenvalues --   -0.63992  -0.63915  -0.63906  -0.63333  -0.63314
 Alpha  occ. eigenvalues --   -0.63183  -0.62950  -0.62696  -0.62608  -0.62016
 Alpha  occ. eigenvalues --   -0.61630  -0.61619  -0.61522  -0.61258  -0.61247
 Alpha  occ. eigenvalues --   -0.61176  -0.60415  -0.59491  -0.59475  -0.59459
 Alpha  occ. eigenvalues --   -0.59422  -0.59373  -0.58576  -0.58002  -0.57975
 Alpha  occ. eigenvalues --   -0.57882  -0.57082  -0.57041  -0.57013  -0.56298
 Alpha  occ. eigenvalues --   -0.56278  -0.56122  -0.55702  -0.54860  -0.54809
 Alpha  occ. eigenvalues --   -0.54771  -0.54526  -0.54242  -0.54111  -0.54094
 Alpha  occ. eigenvalues --   -0.54017  -0.53960  -0.53235  -0.53196  -0.53067
 Alpha  occ. eigenvalues --   -0.53034  -0.52904  -0.52702  -0.52666  -0.52638
 Alpha  occ. eigenvalues --   -0.52593  -0.52513  -0.52467  -0.52449  -0.51609
 Alpha  occ. eigenvalues --   -0.51587  -0.51329  -0.51308  -0.51265  -0.51226
 Alpha  occ. eigenvalues --   -0.51172  -0.51165  -0.50935  -0.50762  -0.50584
 Alpha  occ. eigenvalues --   -0.50567  -0.50561  -0.49873  -0.49859  -0.49299
 Alpha  occ. eigenvalues --   -0.49281  -0.49251  -0.49218  -0.49162  -0.49073
 Alpha  occ. eigenvalues --   -0.48898  -0.48081  -0.48030  -0.47927  -0.47701
 Alpha  occ. eigenvalues --   -0.47387  -0.47287  -0.47246  -0.46998  -0.46927
 Alpha  occ. eigenvalues --   -0.46812  -0.46553  -0.46489  -0.46474  -0.46193
 Alpha  occ. eigenvalues --   -0.46143  -0.46107  -0.45593  -0.45101  -0.44918
 Alpha  occ. eigenvalues --   -0.44875  -0.44213  -0.44145  -0.44035  -0.43517
 Alpha  occ. eigenvalues --   -0.43276  -0.43224  -0.43113  -0.43098  -0.43065
 Alpha  occ. eigenvalues --   -0.42700  -0.42677  -0.42655  -0.42588  -0.42578
 Alpha  occ. eigenvalues --   -0.42496  -0.42459  -0.42439  -0.42283  -0.42266
 Alpha  occ. eigenvalues --   -0.42249  -0.42023  -0.41912  -0.41855  -0.41835
 Alpha  occ. eigenvalues --   -0.41172  -0.41154  -0.41133  -0.41012  -0.40545
 Alpha  occ. eigenvalues --   -0.40514  -0.40495  -0.40387  -0.39444  -0.39429
 Alpha  occ. eigenvalues --   -0.36977  -0.32544  -0.29150  -0.25079  -0.25055
 Alpha  occ. eigenvalues --   -0.23571
 Alpha virt. eigenvalues --   -0.09538  -0.09309  -0.08546  -0.08482  -0.07069
 Alpha virt. eigenvalues --   -0.07042  -0.06942  -0.04548  -0.04206  -0.04162
 Alpha virt. eigenvalues --   -0.03725  -0.03506  -0.03458  -0.03258  -0.03155

 Mulliken charges:
               1
     1  Cl  -0.897754
     2  C   -0.079227
     3  C    0.048143
     4  C   -0.078498
     5  C   -0.033828
     6  C   -0.033732
     7  C   -0.049961
     8  H    0.030631
     9  H    0.029637
    10  H    0.041242
    11  H    0.037035
    12  H    0.040126
    13  C   -0.122631
    14  C    0.021610
    15  H    0.021677
    16  H    0.037966
    17  H    0.024625
    18  O   -0.663987
    19  O   -0.663851
    20  O   -0.655482
    21  O   -0.664331
    22  W    1.736416
    23  W    1.678364
    24  W    1.688107
    25  W    1.698486
    26  W    1.678155
    27  W    1.730178
    28  W    1.622039
    29  W    1.689437
    30  O   -0.320062
    31  O   -0.365709
    32  O   -0.367793
    33  O   -0.360607
    34  O   -0.665665
    35  O   -0.671643
    36  O   -0.662056
    37  O   -0.665125
    38  O   -0.368347
    39  O   -0.365124
    40  O   -0.297291
    41  O   -0.365287
    42  O   -0.670944
    43  O   -0.664383
    44  O   -0.661942
    45  O   -0.666265
    46  O   -0.369047
    47  O   -0.320482
    48  O   -0.362528
    49  O   -0.362299
    50  W    1.676559
    51  W    1.682175
    52  W    1.685578
    53  W    1.688179
    54  O   -0.726174
    55  O   -0.709490
    56  O   -0.726763
    57  O   -0.724150
    58  O   -0.707521
    59  O   -0.728184
    60  O   -0.726133
    61  O   -0.722129
    62  O   -0.725808
    63  O   -0.708850
    64  O   -0.725244
    65  O   -0.727249
    66  O   -0.802885
    67  O   -0.802074
    68  O   -0.798715
    69  O   -0.810228
    70  K    0.863173
    71  K    0.863411
    72  K    0.860314
    73  V    1.194216
 Sum of Mulliken charges =  -1.00000

 Dipole moment (field-independent basis, Debye):
    X=             50.4052    Y=            -51.2704    Z=            -38.7114  Tot=             81.6573
 Quadrupole moment (field-independent basis, Debye-Ang):
   XX=          -1043.0101   YY=           -890.7491   ZZ=           -914.4260
   XY=            448.7924   XZ=            451.2337   YZ=           -478.6297

 Normal termination of Gaussian 16 at Sun Jun  2 17:20:19 2024.
