 Gaussian 16, Revision C.01,
 Gaussian 16:  ES64L-G16RevC.01  3-Jul-2019

 ----------------------------------------------------------------------
 # def2svp wb97xd scrf=(smd,solvent=acetonitrile) g09default scf=(xqc,m
 axcycle=64) force guess=read nosymm
 ----------------------------------------------------------------------

 ----------
 Title Card
 ----------
 Symbolic Z-matrix:
 Charge = -1 Multiplicity = 1

                          Input orientation:
 ---------------------------------------------------------------------
 Center     Atomic      Atomic             Coordinates (Angstroms)
 Number     Number       Type             X           Y           Z
 ---------------------------------------------------------------------
      1         17           0       -9.660150    8.278267   10.549537
      2          6           0       -8.341923    4.246861   12.215806
      3          6           0       -9.138015    3.930987   11.098746
      4          6           0      -10.049093    2.864214   11.214807
      5          6           0      -10.204933    2.179854   12.415549
      6          6           0       -9.440227    2.535820   13.527478
      7          6           0       -8.494194    3.557272   13.415301
      8          1           0       -7.590103    5.036304   12.145475
      9          1           0      -10.647028    2.579204   10.344624
     10          1           0      -10.924098    1.360122   12.484293
     11          1           0       -9.569350    2.008104   14.475031
     12          1           0       -7.870120    3.818380   14.273701
     13          6           0       -9.074056    4.672076    9.837671
     14          6           0       -8.404686    5.822588    9.613849
     15          1           0       -9.655274    4.239152    9.015777
     16          1           0       -8.410299    6.278419    8.622083
     17          1           0       -7.783215    6.305434   10.367618
     18          8           0       -0.975409   -1.800422    7.466629
     19          8           0       -8.391916   -1.333126    7.461677
     20          8           0       -7.021436    1.347858   10.472472
     21          8           0       -2.334284   -4.397143   10.554719
     22         74           0       -3.402420    0.689209    6.475605
     23         74           0       -5.989151   -3.818989    6.557963
     24         74           0       -3.611258    0.868848   11.418482
     25         74           0       -5.761284   -3.863483   11.482569
     26         74           0       -2.429073   -2.593055    6.403347
     27         74           0       -6.939018   -0.533605    6.371639
     28         74           0       -6.817645   -0.249573   11.559978
     29         74           0       -2.542561   -2.737857   11.602106
     30          8           0       -3.167886    1.870263    5.292737
     31          8           0       -6.122179   -5.070082    5.416400
     32          8           0       -2.683122    1.709792   12.567652
     33          8           0       -6.681131   -4.663071   12.665547
     34          8           0       -2.657237   -0.917323    5.588448
     35          8           0       -6.700896   -2.267970    5.620576
     36          8           0       -5.308045    0.550303   12.359681
     37          8           0       -4.049513   -3.532356   12.407109
     38          8           0        0.311681   -0.015957    9.280303
     39          8           0       -9.691624   -3.042820    9.327516
     40          8           0       -6.343425    3.430509    8.664252
     41          8           0       -3.011405   -6.494069    8.743772
     42          8           0       -1.780114    0.746787    7.473163
     43          8           0       -7.597172   -3.883440    7.541203
     44          8           0       -4.490766    2.195520   10.426634
     45          8           0       -4.873321   -5.232516   10.529936
     46          8           0       -1.599684   -3.537508    5.257769
     47          8           0       -7.816546    0.279175    5.180036
     48          8           0       -8.041233   -0.167541   12.735628
     49          8           0       -1.304574   -2.858765   12.759697
     50         74           0       -1.246273   -0.533238    8.837693
     51         74           0       -8.132359   -2.540112    8.874143
     52         74           0       -5.868725    1.858430    9.043299
     53         74           0       -3.495216   -4.919646    9.164206
     54          8           0       -4.210859   -3.112935    6.073079
     55          8           0       -5.150175   -0.063090    6.016947
     56          8           0       -6.168172   -1.998290   11.907587
     57          8           0       -3.171615   -0.990132   11.921681
     58          8           0       -4.351601    1.579643    7.831684
     59          8           0       -5.007311   -4.682086    7.923772
     60          8           0       -2.321868    0.564469   10.077999
     61          8           0       -7.044974   -3.615094   10.130120
     62          8           0       -2.568893   -3.910013    7.868894
     63          8           0       -6.807573    0.794512    7.802639
     64          8           0       -7.823376   -1.177360   10.138862
     65          8           0       -1.556513   -1.872017   10.139067
     66          8           0       -3.354071   -1.159872    8.010152
     67          8           0       -6.017392   -1.959836    8.033819
     68          8           0       -5.114329   -0.209582    9.943027
     69          8           0       -4.235664   -2.848758    9.975057
     70         19           0       -3.212492   -6.133403    5.646500
     71         19           0       -0.111794    0.049066   12.333818
     72         19           0       -9.284690   -2.828445   12.430118
     73         23           0       -4.682435   -1.541275    8.989123
 ---------------------------------------------------------------------

 SCF Done:  E(UwB97XD) =  -7327.70179255     A.U. after   33 cycles

 Alpha  occ. eigenvalues --  -19.24715 -18.94266 -18.93168 -18.93153 -13.36527
 Alpha  occ. eigenvalues --  -13.36466 -13.36440 -10.69454 -10.69450 -10.69448
 Alpha  occ. eigenvalues --  -10.69392 -10.69388 -10.69387 -10.69368 -10.69364
 Alpha  occ. eigenvalues --  -10.69358 -10.32994 -10.32161 -10.31973 -10.31021
 Alpha  occ. eigenvalues --  -10.30988 -10.30965 -10.30575 -10.30499  -9.52697
 Alpha  occ. eigenvalues --   -7.27582  -7.27236  -7.27231  -3.21133  -3.21099
 Alpha  occ. eigenvalues --   -3.21070  -3.21048  -3.21043  -3.21027  -3.21019
 Alpha  occ. eigenvalues --   -3.21015  -3.21005  -3.20883  -3.20879  -3.20847
 Alpha  occ. eigenvalues --   -2.78930  -1.85359  -1.85295  -1.85285  -1.85258
 Alpha  occ. eigenvalues --   -1.85148  -1.85079  -1.85063  -1.85047  -1.85033
 Alpha  occ. eigenvalues --   -1.85021  -1.85009  -1.84953  -1.84397  -1.84287
 Alpha  occ. eigenvalues --   -1.84272  -1.84256  -1.84222  -1.84213  -1.84154
 Alpha  occ. eigenvalues --   -1.84139  -1.84113  -1.84104  -1.84076  -1.84064
 Alpha  occ. eigenvalues --   -1.83967  -1.83925  -1.83888  -1.83880  -1.83866
 Alpha  occ. eigenvalues --   -1.83836  -1.83813  -1.83802  -1.83794  -1.83698
 Alpha  occ. eigenvalues --   -1.83688  -1.83681  -1.82079  -1.81731  -1.81723
 Alpha  occ. eigenvalues --   -1.50228  -1.50171  -1.50151  -1.08633  -1.07009
 Alpha  occ. eigenvalues --   -1.06966  -1.06925  -1.06017  -1.06009  -1.05981
 Alpha  occ. eigenvalues --   -1.04581  -1.04574  -1.04563  -1.03994  -1.03982
 Alpha  occ. eigenvalues --   -1.03741  -1.03385  -1.03353  -1.03332  -1.03029
 Alpha  occ. eigenvalues --   -1.02996  -1.02268  -1.02236  -1.02226  -1.02096
 Alpha  occ. eigenvalues --   -1.02008  -1.01979  -1.01909  -1.01891  -1.01773
 Alpha  occ. eigenvalues --   -1.01760  -1.01741  -1.01625  -1.01584  -1.01567
 Alpha  occ. eigenvalues --   -1.01300  -1.00827  -1.00752  -1.00688  -1.00682
 Alpha  occ. eigenvalues --   -1.00034  -0.99980  -0.99917  -0.96172  -0.89242
 Alpha  occ. eigenvalues --   -0.85672  -0.85615  -0.85603  -0.85520  -0.85502
 Alpha  occ. eigenvalues --   -0.85460  -0.85456  -0.85455  -0.85411  -0.84260
 Alpha  occ. eigenvalues --   -0.82482  -0.81116  -0.71913  -0.69610  -0.65060
 Alpha  occ. eigenvalues --   -0.62342  -0.61730  -0.61666  -0.61641  -0.60561
 Alpha  occ. eigenvalues --   -0.58979  -0.58959  -0.58937  -0.58884  -0.58818
 Alpha  occ. eigenvalues --   -0.58810  -0.58782  -0.58742  -0.58562  -0.57399
 Alpha  occ. eigenvalues --   -0.57359  -0.57341  -0.57044  -0.56738  -0.56513
 Alpha  occ. eigenvalues --   -0.56466  -0.56425  -0.56044  -0.55897  -0.55366
 Alpha  occ. eigenvalues --   -0.55354  -0.55317  -0.54451  -0.54154  -0.54133
 Alpha  occ. eigenvalues --   -0.53944  -0.53726  -0.53681  -0.53664  -0.52720
 Alpha  occ. eigenvalues --   -0.52642  -0.52606  -0.52503  -0.52464  -0.51486
 Alpha  occ. eigenvalues --   -0.51472  -0.51447  -0.51359  -0.51305  -0.50773
 Alpha  occ. eigenvalues --   -0.50565  -0.50533  -0.50485  -0.50398  -0.50327
 Alpha  occ. eigenvalues --   -0.50289  -0.50053  -0.50014  -0.49986  -0.49737
 Alpha  occ. eigenvalues --   -0.49640  -0.49596  -0.49500  -0.49476  -0.49284
 Alpha  occ. eigenvalues --   -0.49236  -0.49202  -0.49148  -0.49101  -0.49032
 Alpha  occ. eigenvalues --   -0.48702  -0.48539  -0.48518  -0.48456  -0.47649
 Alpha  occ. eigenvalues --   -0.47623  -0.47137  -0.46479  -0.46048  -0.46027
 Alpha  occ. eigenvalues --   -0.45891  -0.45823  -0.45754  -0.45621  -0.45223
 Alpha  occ. eigenvalues --   -0.45143  -0.45140  -0.44767  -0.44579  -0.44490
 Alpha  occ. eigenvalues --   -0.44475  -0.44442  -0.44300  -0.44208  -0.44173
 Alpha  occ. eigenvalues --   -0.43473  -0.43079  -0.42547  -0.42512  -0.42431
 Alpha  occ. eigenvalues --   -0.42337  -0.42195  -0.42172  -0.42167  -0.41638
 Alpha  occ. eigenvalues --   -0.41620  -0.41593  -0.41031  -0.40982  -0.40766
 Alpha  occ. eigenvalues --   -0.40756  -0.40723  -0.40356  -0.40340  -0.40313
 Alpha  occ. eigenvalues --   -0.40197  -0.40160  -0.40150  -0.40114  -0.39850
 Alpha  occ. eigenvalues --   -0.39368  -0.39261  -0.39237  -0.39124  -0.39064
 Alpha  occ. eigenvalues --   -0.38899  -0.38867  -0.38806  -0.38770  -0.38696
 Alpha  occ. eigenvalues --   -0.38302  -0.38263  -0.38214  -0.38008  -0.37213
 Alpha  occ. eigenvalues --   -0.37175  -0.34848  -0.34814  -0.33640  -0.30322
 Alpha  occ. eigenvalues --   -0.25922
 Alpha virt. eigenvalues --   -0.12202  -0.06420  -0.06356  -0.04914  -0.04875
 Alpha virt. eigenvalues --   -0.04763  -0.01526  -0.01419  -0.01379  -0.01171
 Alpha virt. eigenvalues --   -0.00934  -0.00923  -0.00896  -0.00164  -0.00099

  Beta  occ. eigenvalues -- -197.11018-129.99115-129.99055-129.99036-101.62692
  Beta  occ. eigenvalues --  -22.43426 -19.28544 -19.28509 -19.28452 -19.28409
  Beta  occ. eigenvalues --  -19.28388 -19.28368 -19.28352 -19.28349 -19.28343
  Beta  occ. eigenvalues --  -19.28278 -19.28260 -19.28163 -19.26948 -19.26915
  Beta  occ. eigenvalues --  -19.26909 -19.26861 -19.26850 -19.26826 -19.26826
  Beta  occ. eigenvalues --  -19.26825 -19.26816 -19.26811 -19.26799 -19.26789
  Beta  occ. eigenvalues --  -19.26770 -19.26762 -19.26759 -19.26758 -19.26754
  Beta  occ. eigenvalues --  -19.26752 -19.26736 -19.26727 -19.26718 -19.26707
  Beta  occ. eigenvalues --  -19.26648 -19.26602 -19.24777 -19.24747 -19.24714
  Beta  occ. eigenvalues --  -19.24690 -18.93921 -18.91710 -18.91684 -13.36527
  Beta  occ. eigenvalues --  -13.36466 -13.36440 -10.69454 -10.69450 -10.69448
  Beta  occ. eigenvalues --  -10.69392 -10.69388 -10.69387 -10.69368 -10.69364
  Beta  occ. eigenvalues --  -10.69358 -10.33266 -10.32279 -10.31924 -10.31122
  Beta  occ. eigenvalues --  -10.31110 -10.31064 -10.30517 -10.30441  -9.53151
  Beta  occ. eigenvalues --   -7.29008  -7.27546  -7.27541  -3.21133  -3.21093
  Beta  occ. eigenvalues --   -3.21070  -3.21043  -3.21042  -3.21021  -3.21014
  Beta  occ. eigenvalues --   -3.21009  -3.20999  -3.20883  -3.20874  -3.20842
  Beta  occ. eigenvalues --   -2.74863  -1.85354  -1.85290  -1.85280  -1.85250
  Beta  occ. eigenvalues --   -1.85142  -1.85073  -1.85059  -1.85041  -1.85024
  Beta  occ. eigenvalues --   -1.85013  -1.85003  -1.84945  -1.84394  -1.84285
  Beta  occ. eigenvalues --   -1.84268  -1.84254  -1.84219  -1.84209  -1.84151
  Beta  occ. eigenvalues --   -1.84136  -1.84110  -1.84101  -1.84073  -1.84061
  Beta  occ. eigenvalues --   -1.83965  -1.83922  -1.83886  -1.83878  -1.83863
  Beta  occ. eigenvalues --   -1.83833  -1.83810  -1.83799  -1.83791  -1.83696
  Beta  occ. eigenvalues --   -1.83685  -1.83678  -1.80739  -1.75998  -1.75942
  Beta  occ. eigenvalues --   -1.50228  -1.50171  -1.50151  -1.08615  -1.06989
  Beta  occ. eigenvalues --   -1.06943  -1.06898  -1.06015  -1.06006  -1.05980
  Beta  occ. eigenvalues --   -1.04582  -1.04574  -1.04562  -1.03996  -1.03981
  Beta  occ. eigenvalues --   -1.03675  -1.03355  -1.03313  -1.03296  -1.03028
  Beta  occ. eigenvalues --   -1.02988  -1.02251  -1.02212  -1.02208  -1.02087
  Beta  occ. eigenvalues --   -1.02003  -1.01966  -1.01904  -1.01877  -1.01768
  Beta  occ. eigenvalues --   -1.01758  -1.01738  -1.01622  -1.01582  -1.01551
  Beta  occ. eigenvalues --   -1.01300  -1.00788  -1.00751  -1.00688  -1.00682
  Beta  occ. eigenvalues --   -0.99900  -0.99846  -0.99800  -0.96395  -0.89898
  Beta  occ. eigenvalues --   -0.85672  -0.85615  -0.85603  -0.85520  -0.85502
  Beta  occ. eigenvalues --   -0.85460  -0.85456  -0.85455  -0.85411  -0.84755
  Beta  occ. eigenvalues --   -0.84351  -0.82708  -0.72166  -0.69730  -0.65304
  Beta  occ. eigenvalues --   -0.62341  -0.61729  -0.61666  -0.61641  -0.60769
  Beta  occ. eigenvalues --   -0.58976  -0.58958  -0.58936  -0.58808  -0.58798
  Beta  occ. eigenvalues --   -0.58774  -0.58753  -0.58686  -0.58562  -0.57360
  Beta  occ. eigenvalues --   -0.57216  -0.57173  -0.57006  -0.56905  -0.56516
  Beta  occ. eigenvalues --   -0.56433  -0.56389  -0.55853  -0.55640  -0.55346
  Beta  occ. eigenvalues --   -0.55336  -0.55318  -0.54657  -0.54147  -0.54125
  Beta  occ. eigenvalues --   -0.53934  -0.53689  -0.53652  -0.53622  -0.52779
  Beta  occ. eigenvalues --   -0.52657  -0.52594  -0.52483  -0.52459  -0.51461
  Beta  occ. eigenvalues --   -0.51447  -0.51438  -0.51302  -0.51230  -0.50965
  Beta  occ. eigenvalues --   -0.50553  -0.50476  -0.50461  -0.50335  -0.50252
  Beta  occ. eigenvalues --   -0.50167  -0.50024  -0.50011  -0.49951  -0.49685
  Beta  occ. eigenvalues --   -0.49616  -0.49560  -0.49489  -0.49465  -0.49283
  Beta  occ. eigenvalues --   -0.49215  -0.49198  -0.49122  -0.49088  -0.49013
  Beta  occ. eigenvalues --   -0.48696  -0.48535  -0.48518  -0.48449  -0.47797
  Beta  occ. eigenvalues --   -0.47588  -0.47562  -0.46018  -0.45907  -0.45870
  Beta  occ. eigenvalues --   -0.45823  -0.45673  -0.45568  -0.45223  -0.45162
  Beta  occ. eigenvalues --   -0.45145  -0.45049  -0.44767  -0.44577  -0.44474
  Beta  occ. eigenvalues --   -0.44423  -0.44412  -0.44280  -0.44187  -0.44158
  Beta  occ. eigenvalues --   -0.43467  -0.43185  -0.42489  -0.42456  -0.42400
  Beta  occ. eigenvalues --   -0.42277  -0.42253  -0.42147  -0.42130  -0.41624
  Beta  occ. eigenvalues --   -0.41601  -0.41571  -0.41365  -0.41037  -0.40938
  Beta  occ. eigenvalues --   -0.40750  -0.40692  -0.40659  -0.40341  -0.40331
  Beta  occ. eigenvalues --   -0.40297  -0.40149  -0.40138  -0.40126  -0.39793
  Beta  occ. eigenvalues --   -0.39613  -0.39366  -0.39167  -0.39092  -0.39081
  Beta  occ. eigenvalues --   -0.38893  -0.38838  -0.38812  -0.38757  -0.38708
  Beta  occ. eigenvalues --   -0.38655  -0.38299  -0.38260  -0.38210  -0.37783
  Beta  occ. eigenvalues --   -0.37216  -0.37169  -0.35797  -0.35757  -0.33917
  Beta  occ. eigenvalues --   -0.30894
  Beta virt. eigenvalues --   -0.06419  -0.06356  -0.04913  -0.04874  -0.04762
  Beta virt. eigenvalues --   -0.01521  -0.01414  -0.01373  -0.01165  -0.00929
  Beta virt. eigenvalues --   -0.00918  -0.00892  -0.00153  -0.00086  -0.00048

 Mulliken charges and spin densities:
               1          2
     1  Cl  -0.344034  -0.614372
     2  C   -0.035032  -0.094093
     3  C    0.012564   0.055607
     4  C   -0.034889  -0.090076
     5  C   -0.031544   0.057454
     6  C    0.007119  -0.113711
     7  C   -0.048142   0.057516
     8  H    0.050981   0.004134
     9  H    0.050865   0.003865
    10  H    0.055961  -0.002044
    11  H    0.056866   0.004996
    12  H    0.054601  -0.002026
    13  C    0.004912  -0.254411
    14  C   -0.046108  -0.021805
    15  H    0.076463   0.010545
    16  H    0.095180   0.001603
    17  H    0.087097  -0.001459
    18  O   -0.672977  -0.000569
    19  O   -0.672709  -0.000531
    20  O   -0.666825  -0.001631
    21  O   -0.673409  -0.000542
    22  W    1.719804   0.000360
    23  W    1.664095   0.000481
    24  W    1.675359   0.000169
    25  W    1.684381   0.000207
    26  W    1.664522   0.002694
    27  W    1.712506   0.002420
    28  W    1.614006   0.003356
    29  W    1.675065   0.002795
    30  O   -0.349988  -0.000532
    31  O   -0.394092  -0.000568
    32  O   -0.396217  -0.000610
    33  O   -0.389355  -0.000567
    34  O   -0.673989  -0.000284
    35  O   -0.679155  -0.000033
    36  O   -0.671233  -0.000137
    37  O   -0.674095  -0.000205
    38  O   -0.398145   0.002093
    39  O   -0.395257   0.002125
    40  O   -0.340199   0.000154
    41  O   -0.395341   0.002091
    42  O   -0.678703   0.000028
    43  O   -0.673097   0.000125
    44  O   -0.670457   0.000248
    45  O   -0.674783   0.000072
    46  O   -0.398933   0.002269
    47  O   -0.352204   0.002167
    48  O   -0.395603   0.001834
    49  O   -0.392473   0.002330
    50  W    1.662498   0.002747
    51  W    1.667723   0.002643
    52  W    1.678453   0.003860
    53  W    1.673522   0.002591
    54  O   -0.724068   0.000110
    55  O   -0.707653   0.000021
    56  O   -0.723346   0.000163
    57  O   -0.722175   0.000069
    58  O   -0.705406   0.000062
    59  O   -0.725337   0.000148
    60  O   -0.723547   0.000202
    61  O   -0.719721   0.000191
    62  O   -0.724285  -0.000187
    63  O   -0.707670  -0.000062
    64  O   -0.724244  -0.000212
    65  O   -0.725218  -0.000215
    66  O   -0.885342   0.005207
    67  O   -0.885361   0.007229
    68  O   -0.881933   0.006947
    69  O   -0.890236   0.006361
    70  K    0.849525   0.000190
    71  K    0.850047   0.000210
    72  K    0.846554   0.000214
    73  V    1.203860   0.937977
 Sum of Mulliken charges =  -1.00000   0.00000

 Dipole moment (field-independent basis, Debye):
    X=             28.2546    Y=            -13.5720    Z=            -30.5739  Tot=             43.7868
 Quadrupole moment (field-independent basis, Debye-Ang):
   XX=           -760.7097   YY=           -710.6230   ZZ=           -778.8230
   XY=            126.6741   XZ=            175.4476   YZ=            -91.8238

 Normal termination of Gaussian 16 at Sun Jun  2 17:10:33 2024.
