 Gaussian 16, Revision C.01,
 Gaussian 16:  ES64L-G16RevC.01  3-Jul-2019

 ----------------------------------------------------------------------
 # def2svp wb97xd scrf=(smd,solvent=acetonitrile) g09default scf=(xqc,m
 axcycle=64) force guess=read nosymm
 ----------------------------------------------------------------------

 ----------
 Title Card
 ----------
 Symbolic Z-matrix:
 Charge = -1 Multiplicity = 1

                          Input orientation:
 ---------------------------------------------------------------------
 Center     Atomic      Atomic             Coordinates (Angstroms)
 Number     Number       Type             X           Y           Z
 ---------------------------------------------------------------------
      1         17           0       -9.856391    7.545276   10.371873
      2          6           0       -8.310643    4.255311   12.239753
      3          6           0       -9.075364    3.940788   11.101458
      4          6           0      -10.009321    2.891536   11.194644
      5          6           0      -10.183887    2.191270   12.382077
      6          6           0       -9.425609    2.522912   13.506040
      7          6           0       -8.484264    3.551284   13.427434
      8          1           0       -7.572787    5.060634   12.198809
      9          1           0      -10.599093    2.628582   10.310851
     10          1           0      -10.912628    1.377809   12.433595
     11          1           0       -9.559123    1.973546   14.439101
     12          1           0       -7.882638    3.808407   14.303407
     13          6           0       -8.925855    4.651590    9.833493
     14          6           0       -8.118358    5.680665    9.594542
     15          1           0       -9.611564    4.321546    9.040482
     16          1           0       -8.046429    6.119258    8.591601
     17          1           0       -7.367833    6.042091   10.311954
     18          8           0       -0.987484   -1.761613    7.446806
     19          8           0       -8.433564   -1.325853    7.453780
     20          8           0       -7.076769    1.355109   10.504941
     21          8           0       -2.322703   -4.366087   10.574702
     22         74           0       -3.424490    0.749424    6.522330
     23         74           0       -6.022595   -3.827422    6.599389
     24         74           0       -3.640737    0.929824   11.388398
     25         74           0       -5.771903   -3.874831   11.459190
     26         74           0       -2.472999   -2.537535    6.372288
     27         74           0       -6.944807   -0.541964    6.350932
     28         74           0       -6.823579   -0.248539   11.603459
     29         74           0       -2.580856   -2.692967   11.632853
     30          8           0       -3.208711    1.943909    5.354381
     31          8           0       -6.134731   -5.080640    5.466798
     32          8           0       -2.709544    1.761356   12.531798
     33          8           0       -6.694810   -4.671942   12.633250
     34          8           0       -2.685729   -0.860809    5.585895
     35          8           0       -6.727039   -2.276360    5.626532
     36          8           0       -5.327449    0.581101   12.370465
     37          8           0       -4.066034   -3.522055   12.417578
     38          8           0        0.288993   -0.004924    9.284452
     39          8           0       -9.710494   -3.014248    9.346569
     40          8           0       -6.448816    3.412263    8.665773
     41          8           0       -2.969806   -6.442233    8.737547
     42          8           0       -1.798186    0.784555    7.485832
     43          8           0       -7.629698   -3.875441    7.558056
     44          8           0       -4.551502    2.238247   10.430086
     45          8           0       -4.857022   -5.223399   10.527647
     46          8           0       -1.653468   -3.477471    5.228402
     47          8           0       -7.815767    0.264859    5.154555
     48          8           0       -8.033010   -0.182891   12.780301
     49          8           0       -1.346123   -2.789795   12.786107
     50         74           0       -1.253865   -0.532618    8.834758
     51         74           0       -8.169952   -2.494165    8.878964
     52         74           0       -5.967443    1.855736    9.059510
     53         74           0       -3.451107   -4.878410    9.172176
     54          8           0       -4.243051   -3.070987    6.090631
     55          8           0       -5.170233   -0.053973    6.039250
     56          8           0       -6.165646   -1.990193   11.903944
     57          8           0       -3.215880   -0.958831   11.910655
     58          8           0       -4.399206    1.587467    7.868071
     59          8           0       -5.011270   -4.645337    7.950514
     60          8           0       -2.367564    0.588120   10.060081
     61          8           0       -7.044827   -3.594460   10.120526
     62          8           0       -2.572564   -3.859648    7.871239
     63          8           0       -6.858885    0.783725    7.812118
     64          8           0       -7.843812   -1.160494   10.151463
     65          8           0       -1.578091   -1.844639   10.142465
     66          8           0       -3.388141   -1.139518    8.030466
     67          8           0       -6.031521   -1.932953    8.055716
     68          8           0       -5.152223   -0.202179    9.933707
     69          8           0       -4.242532   -2.809259    9.968158
     70         19           0       -3.246216   -6.071531    5.700692
     71         19           0       -0.195963    0.018249   12.314838
     72         19           0       -9.218999   -2.919248   12.368417
     73         23           0       -4.706570   -1.517397    8.995312
 ---------------------------------------------------------------------

 SCF Done:  E(RwB97XD) =  -7327.68881470     A.U. after   20 cycles

 Alpha  occ. eigenvalues -- -197.28105-129.99949-129.99929-129.99840-101.48268
 Alpha  occ. eigenvalues --  -22.61379 -19.33106 -19.33071 -19.33060 -19.33054
 Alpha  occ. eigenvalues --  -19.30743 -19.30726 -19.30722 -19.30705 -19.30698
 Alpha  occ. eigenvalues --  -19.30680 -19.30674 -19.30668 -19.30574 -19.30297
 Alpha  occ. eigenvalues --  -19.30272 -19.30078 -19.29211 -19.29209 -19.29203
 Alpha  occ. eigenvalues --  -19.29175 -19.29171 -19.29170 -19.29162 -19.29159
 Alpha  occ. eigenvalues --  -19.29140 -19.29116 -19.29115 -19.29105 -19.29079
 Alpha  occ. eigenvalues --  -19.29066 -19.29052 -19.29034 -19.29022 -19.28989
 Alpha  occ. eigenvalues --  -19.28980 -19.28916 -19.28902 -19.28891 -19.28881
 Alpha  occ. eigenvalues --  -19.28774 -19.10319 -19.10310 -19.10298 -13.37344
 Alpha  occ. eigenvalues --  -13.37323 -13.37221 -10.70275 -10.70267 -10.70266
 Alpha  occ. eigenvalues --  -10.70255 -10.70246 -10.70246 -10.70154 -10.70146
 Alpha  occ. eigenvalues --  -10.70144 -10.29209 -10.29010 -10.28952 -10.28555
 Alpha  occ. eigenvalues --  -10.28429 -10.28397 -10.27671 -10.25667  -9.38782
 Alpha  occ. eigenvalues --   -7.13630  -7.13542  -7.13530  -3.23197  -3.23177
 Alpha  occ. eigenvalues --   -3.23176  -3.23161  -3.23156  -3.23138  -3.23125
 Alpha  occ. eigenvalues --   -3.23095  -3.23054  -3.22846  -3.22806  -3.22522
 Alpha  occ. eigenvalues --   -2.90976  -1.93498  -1.93432  -1.93399  -1.87710
 Alpha  occ. eigenvalues --   -1.87647  -1.87634  -1.87573  -1.87476  -1.87461
 Alpha  occ. eigenvalues --   -1.87448  -1.87440  -1.87385  -1.87189  -1.87161
 Alpha  occ. eigenvalues --   -1.86975  -1.86501  -1.86384  -1.86372  -1.86357
 Alpha  occ. eigenvalues --   -1.86325  -1.86290  -1.86214  -1.86190  -1.86174
 Alpha  occ. eigenvalues --   -1.86164  -1.86124  -1.86104  -1.86028  -1.85999
 Alpha  occ. eigenvalues --   -1.85990  -1.85962  -1.85916  -1.85870  -1.85855
 Alpha  occ. eigenvalues --   -1.85776  -1.85758  -1.85662  -1.85508  -1.85418
 Alpha  occ. eigenvalues --   -1.51051  -1.51032  -1.50933  -1.12699  -1.10866
 Alpha  occ. eigenvalues --   -1.10793  -1.10762  -1.08725  -1.08345  -1.08293
 Alpha  occ. eigenvalues --   -1.08109  -1.07332  -1.07269  -1.07261  -1.06731
 Alpha  occ. eigenvalues --   -1.06717  -1.06689  -1.06120  -1.06094  -1.05287
 Alpha  occ. eigenvalues --   -1.05271  -1.04862  -1.04852  -1.04842  -1.04231
 Alpha  occ. eigenvalues --   -1.04217  -1.04183  -1.04070  -1.04064  -1.04025
 Alpha  occ. eigenvalues --   -1.03933  -1.03910  -1.03866  -1.03813  -1.03787
 Alpha  occ. eigenvalues --   -1.03657  -1.03498  -1.03270  -1.03228  -1.03084
 Alpha  occ. eigenvalues --   -1.03026  -1.02949  -1.02877  -0.93889  -0.86544
 Alpha  occ. eigenvalues --   -0.86527  -0.86438  -0.86337  -0.86332  -0.86317
 Alpha  occ. eigenvalues --   -0.86312  -0.86222  -0.86210  -0.85924  -0.82422
 Alpha  occ. eigenvalues --   -0.79330  -0.71586  -0.69164  -0.67574  -0.64343
 Alpha  occ. eigenvalues --   -0.63744  -0.63672  -0.63650  -0.63117  -0.63113
 Alpha  occ. eigenvalues --   -0.62898  -0.62520  -0.62423  -0.62367  -0.61621
 Alpha  occ. eigenvalues --   -0.61424  -0.61406  -0.61307  -0.61045  -0.61032
 Alpha  occ. eigenvalues --   -0.60975  -0.60278  -0.59302  -0.59232  -0.59188
 Alpha  occ. eigenvalues --   -0.59148  -0.59114  -0.58160  -0.57872  -0.57847
 Alpha  occ. eigenvalues --   -0.57763  -0.56901  -0.56840  -0.56789  -0.56197
 Alpha  occ. eigenvalues --   -0.56158  -0.56045  -0.55686  -0.54887  -0.54811
 Alpha  occ. eigenvalues --   -0.54782  -0.54256  -0.54125  -0.54091  -0.54052
 Alpha  occ. eigenvalues --   -0.54013  -0.54010  -0.53256  -0.53201  -0.53020
 Alpha  occ. eigenvalues --   -0.52968  -0.52810  -0.52663  -0.52620  -0.52595
 Alpha  occ. eigenvalues --   -0.52529  -0.52441  -0.52403  -0.52028  -0.51578
 Alpha  occ. eigenvalues --   -0.51549  -0.51349  -0.51319  -0.51313  -0.51261
 Alpha  occ. eigenvalues --   -0.51223  -0.51134  -0.50934  -0.50702  -0.50676
 Alpha  occ. eigenvalues --   -0.50637  -0.50439  -0.49906  -0.49869  -0.49292
 Alpha  occ. eigenvalues --   -0.49277  -0.49258  -0.49133  -0.49089  -0.48905
 Alpha  occ. eigenvalues --   -0.48832  -0.48071  -0.48016  -0.47885  -0.47326
 Alpha  occ. eigenvalues --   -0.47275  -0.47223  -0.47124  -0.46933  -0.46911
 Alpha  occ. eigenvalues --   -0.46778  -0.46475  -0.46414  -0.46311  -0.46023
 Alpha  occ. eigenvalues --   -0.46000  -0.45938  -0.45236  -0.45040  -0.44853
 Alpha  occ. eigenvalues --   -0.44795  -0.44101  -0.44053  -0.43902  -0.43257
 Alpha  occ. eigenvalues --   -0.43202  -0.43104  -0.43068  -0.43019  -0.42920
 Alpha  occ. eigenvalues --   -0.42700  -0.42681  -0.42667  -0.42562  -0.42540
 Alpha  occ. eigenvalues --   -0.42507  -0.42490  -0.42370  -0.42311  -0.42253
 Alpha  occ. eigenvalues --   -0.42227  -0.42065  -0.41997  -0.41881  -0.41840
 Alpha  occ. eigenvalues --   -0.41161  -0.41159  -0.40996  -0.40679  -0.40475
 Alpha  occ. eigenvalues --   -0.40432  -0.40397  -0.39622  -0.39361  -0.39313
 Alpha  occ. eigenvalues --   -0.36588  -0.32234  -0.29410  -0.25204  -0.25091
 Alpha  occ. eigenvalues --   -0.21643
 Alpha virt. eigenvalues --   -0.08485  -0.08241  -0.08127  -0.08051  -0.06743
 Alpha virt. eigenvalues --   -0.06703  -0.06585  -0.03837  -0.03647  -0.03532
 Alpha virt. eigenvalues --   -0.03310  -0.03108  -0.03035  -0.02882  -0.02775

 Mulliken charges:
               1
     1  Cl  -0.867937
     2  C   -0.094843
     3  C    0.046118
     4  C   -0.085967
     5  C   -0.033713
     6  C   -0.041925
     7  C   -0.050155
     8  H    0.020754
     9  H    0.024035
    10  H    0.037020
    11  H    0.031195
    12  H    0.035551
    13  C   -0.077371
    14  C    0.048198
    15  H   -0.003651
    16  H    0.027416
    17  H    0.032458
    18  O   -0.659755
    19  O   -0.657449
    20  O   -0.649957
    21  O   -0.659677
    22  W    1.727370
    23  W    1.663686
    24  W    1.674568
    25  W    1.685434
    26  W    1.666530
    27  W    1.724868
    28  W    1.612083
    29  W    1.678864
    30  O   -0.319280
    31  O   -0.364569
    32  O   -0.363687
    33  O   -0.362360
    34  O   -0.660683
    35  O   -0.669065
    36  O   -0.658676
    37  O   -0.661213
    38  O   -0.362913
    39  O   -0.363538
    40  O   -0.282603
    41  O   -0.363861
    42  O   -0.668105
    43  O   -0.659873
    44  O   -0.655425
    45  O   -0.662673
    46  O   -0.363638
    47  O   -0.319707
    48  O   -0.350038
    49  O   -0.363078
    50  W    1.664110
    51  W    1.667897
    52  W    1.665441
    53  W    1.675106
    54  O   -0.722224
    55  O   -0.705136
    56  O   -0.725794
    57  O   -0.719561
    58  O   -0.702625
    59  O   -0.725540
    60  O   -0.723242
    61  O   -0.720961
    62  O   -0.722069
    63  O   -0.706066
    64  O   -0.721351
    65  O   -0.725998
    66  O   -0.802954
    67  O   -0.803052
    68  O   -0.797977
    69  O   -0.812266
    70  K    0.858886
    71  K    0.858414
    72  K    0.854125
    73  V    1.214075
 Sum of Mulliken charges =  -1.00000

 Dipole moment (field-independent basis, Debye):
    X=             51.0110    Y=            -46.8849    Z=            -38.6448  Tot=             79.3331
 Quadrupole moment (field-independent basis, Debye-Ang):
   XX=          -1061.7910   YY=           -830.1726   ZZ=           -917.0508
   XY=            414.0685   XZ=            456.6310   YZ=           -431.3853

 Normal termination of Gaussian 16 at Sat Jun  1 12:53:41 2024.
