 Gaussian 16, Revision C.01,
 Gaussian 16:  ES64L-G16RevC.01  3-Jul-2019

 ----------------------------------------------------------------------
 # def2svp wb97xd scrf=(smd,solvent=acetonitrile) g09default scf=(xqc,m
 axcycle=64) force guess=read nosymm
 ----------------------------------------------------------------------

 ----------
 Title Card
 ----------
 Symbolic Z-matrix:
 Charge = -1 Multiplicity = 1

                          Input orientation:
 ---------------------------------------------------------------------
 Center     Atomic      Atomic             Coordinates (Angstroms)
 Number     Number       Type             X           Y           Z
 ---------------------------------------------------------------------
      1         17           0       -9.856391    7.545276   10.371873
      2          6           0       -8.310643    4.255311   12.239753
      3          6           0       -9.075364    3.940788   11.101458
      4          6           0      -10.009321    2.891536   11.194644
      5          6           0      -10.183887    2.191270   12.382077
      6          6           0       -9.425609    2.522912   13.506040
      7          6           0       -8.484264    3.551284   13.427434
      8          1           0       -7.572787    5.060634   12.198809
      9          1           0      -10.599093    2.628582   10.310851
     10          1           0      -10.912628    1.377809   12.433595
     11          1           0       -9.559123    1.973546   14.439101
     12          1           0       -7.882638    3.808407   14.303407
     13          6           0       -8.925855    4.651590    9.833493
     14          6           0       -8.118358    5.680665    9.594542
     15          1           0       -9.611564    4.321546    9.040482
     16          1           0       -8.046429    6.119258    8.591601
     17          1           0       -7.367833    6.042091   10.311954
     18          8           0       -0.987484   -1.761613    7.446806
     19          8           0       -8.433564   -1.325853    7.453780
     20          8           0       -7.076769    1.355109   10.504941
     21          8           0       -2.322703   -4.366087   10.574702
     22         74           0       -3.424490    0.749424    6.522330
     23         74           0       -6.022595   -3.827422    6.599389
     24         74           0       -3.640737    0.929824   11.388398
     25         74           0       -5.771903   -3.874831   11.459190
     26         74           0       -2.472999   -2.537535    6.372288
     27         74           0       -6.944807   -0.541964    6.350932
     28         74           0       -6.823579   -0.248539   11.603459
     29         74           0       -2.580856   -2.692967   11.632853
     30          8           0       -3.208711    1.943909    5.354381
     31          8           0       -6.134731   -5.080640    5.466798
     32          8           0       -2.709544    1.761356   12.531798
     33          8           0       -6.694810   -4.671942   12.633250
     34          8           0       -2.685729   -0.860809    5.585895
     35          8           0       -6.727039   -2.276360    5.626532
     36          8           0       -5.327449    0.581101   12.370465
     37          8           0       -4.066034   -3.522055   12.417578
     38          8           0        0.288993   -0.004924    9.284452
     39          8           0       -9.710494   -3.014248    9.346569
     40          8           0       -6.448816    3.412263    8.665773
     41          8           0       -2.969806   -6.442233    8.737547
     42          8           0       -1.798186    0.784555    7.485832
     43          8           0       -7.629698   -3.875441    7.558056
     44          8           0       -4.551502    2.238247   10.430086
     45          8           0       -4.857022   -5.223399   10.527647
     46          8           0       -1.653468   -3.477471    5.228402
     47          8           0       -7.815767    0.264859    5.154555
     48          8           0       -8.033010   -0.182891   12.780301
     49          8           0       -1.346123   -2.789795   12.786107
     50         74           0       -1.253865   -0.532618    8.834758
     51         74           0       -8.169952   -2.494165    8.878964
     52         74           0       -5.967443    1.855736    9.059510
     53         74           0       -3.451107   -4.878410    9.172176
     54          8           0       -4.243051   -3.070987    6.090631
     55          8           0       -5.170233   -0.053973    6.039250
     56          8           0       -6.165646   -1.990193   11.903944
     57          8           0       -3.215880   -0.958831   11.910655
     58          8           0       -4.399206    1.587467    7.868071
     59          8           0       -5.011270   -4.645337    7.950514
     60          8           0       -2.367564    0.588120   10.060081
     61          8           0       -7.044827   -3.594460   10.120526
     62          8           0       -2.572564   -3.859648    7.871239
     63          8           0       -6.858885    0.783725    7.812118
     64          8           0       -7.843812   -1.160494   10.151463
     65          8           0       -1.578091   -1.844639   10.142465
     66          8           0       -3.388141   -1.139518    8.030466
     67          8           0       -6.031521   -1.932953    8.055716
     68          8           0       -5.152223   -0.202179    9.933707
     69          8           0       -4.242532   -2.809259    9.968158
     70         19           0       -3.246216   -6.071531    5.700692
     71         19           0       -0.195963    0.018249   12.314838
     72         19           0       -9.218999   -2.919248   12.368417
     73         23           0       -4.706570   -1.517397    8.995312
 ---------------------------------------------------------------------

 SCF Done:  E(UwB97XD) =  -7327.70239980     A.U. after   36 cycles

 Alpha  occ. eigenvalues --  -19.24225 -18.92743 -18.91662 -18.91631 -13.36329
 Alpha  occ. eigenvalues --  -13.36308 -13.36271 -10.69258 -10.69252 -10.69252
 Alpha  occ. eigenvalues --  -10.69236 -10.69231 -10.69230 -10.69202 -10.69196
 Alpha  occ. eigenvalues --  -10.69194 -10.32831 -10.32742 -10.31629 -10.30796
 Alpha  occ. eigenvalues --  -10.30769 -10.30740 -10.30418 -10.30334  -9.51333
 Alpha  occ. eigenvalues --   -7.26189  -7.25914  -7.25895  -3.21010  -3.21001
 Alpha  occ. eigenvalues --   -3.20959  -3.20958  -3.20935  -3.20931  -3.20922
 Alpha  occ. eigenvalues --   -3.20886  -3.20869  -3.20852  -3.20767  -3.20753
 Alpha  occ. eigenvalues --   -2.77870  -1.85390  -1.85307  -1.85291  -1.85252
 Alpha  occ. eigenvalues --   -1.85172  -1.85135  -1.85100  -1.85084  -1.85038
 Alpha  occ. eigenvalues --   -1.85024  -1.84979  -1.84915  -1.84300  -1.84188
 Alpha  occ. eigenvalues --   -1.84174  -1.84162  -1.84125  -1.84109  -1.84072
 Alpha  occ. eigenvalues --   -1.84030  -1.84012  -1.83997  -1.83969  -1.83961
 Alpha  occ. eigenvalues --   -1.83864  -1.83823  -1.83804  -1.83796  -1.83789
 Alpha  occ. eigenvalues --   -1.83734  -1.83721  -1.83701  -1.83688  -1.83623
 Alpha  occ. eigenvalues --   -1.83611  -1.83580  -1.81182  -1.80805  -1.80774
 Alpha  occ. eigenvalues --   -1.50052  -1.50029  -1.49997  -1.08474  -1.06869
 Alpha  occ. eigenvalues --   -1.06816  -1.06778  -1.05880  -1.05857  -1.05825
 Alpha  occ. eigenvalues --   -1.04479  -1.04464  -1.04449  -1.03850  -1.03829
 Alpha  occ. eigenvalues --   -1.03515  -1.03241  -1.03209  -1.03195  -1.03045
 Alpha  occ. eigenvalues --   -1.03009  -1.02281  -1.02269  -1.02247  -1.02191
 Alpha  occ. eigenvalues --   -1.02119  -1.02093  -1.02049  -1.01997  -1.01839
 Alpha  occ. eigenvalues --   -1.01716  -1.01681  -1.01659  -1.01581  -1.01523
 Alpha  occ. eigenvalues --   -1.01255  -1.00780  -1.00715  -1.00669  -1.00652
 Alpha  occ. eigenvalues --   -0.99778  -0.99734  -0.99629  -0.96040  -0.89516
 Alpha  occ. eigenvalues --   -0.85524  -0.85499  -0.85479  -0.85348  -0.85344
 Alpha  occ. eigenvalues --   -0.85327  -0.85322  -0.85298  -0.85285  -0.84126
 Alpha  occ. eigenvalues --   -0.82660  -0.80195  -0.71800  -0.69486  -0.64911
 Alpha  occ. eigenvalues --   -0.62112  -0.61523  -0.61476  -0.61441  -0.60555
 Alpha  occ. eigenvalues --   -0.58828  -0.58828  -0.58799  -0.58789  -0.58747
 Alpha  occ. eigenvalues --   -0.58652  -0.58641  -0.58593  -0.58395  -0.57317
 Alpha  occ. eigenvalues --   -0.57259  -0.57226  -0.56943  -0.56780  -0.56347
 Alpha  occ. eigenvalues --   -0.56306  -0.56261  -0.55869  -0.55762  -0.55290
 Alpha  occ. eigenvalues --   -0.55281  -0.55249  -0.54398  -0.54196  -0.54161
 Alpha  occ. eigenvalues --   -0.53991  -0.53670  -0.53573  -0.53568  -0.52772
 Alpha  occ. eigenvalues --   -0.52680  -0.52593  -0.52549  -0.52510  -0.51565
 Alpha  occ. eigenvalues --   -0.51535  -0.51497  -0.51456  -0.51400  -0.50807
 Alpha  occ. eigenvalues --   -0.50576  -0.50547  -0.50508  -0.50394  -0.50306
 Alpha  occ. eigenvalues --   -0.50290  -0.50154  -0.50092  -0.50046  -0.49858
 Alpha  occ. eigenvalues --   -0.49778  -0.49751  -0.49514  -0.49481  -0.49324
 Alpha  occ. eigenvalues --   -0.49247  -0.49179  -0.49095  -0.49037  -0.49000
 Alpha  occ. eigenvalues --   -0.48871  -0.48708  -0.48632  -0.48559  -0.47707
 Alpha  occ. eigenvalues --   -0.47653  -0.47101  -0.46497  -0.46111  -0.46085
 Alpha  occ. eigenvalues --   -0.45952  -0.45793  -0.45614  -0.45504  -0.45199
 Alpha  occ. eigenvalues --   -0.45166  -0.45154  -0.44820  -0.44613  -0.44440
 Alpha  occ. eigenvalues --   -0.44398  -0.44374  -0.44207  -0.44178  -0.44127
 Alpha  occ. eigenvalues --   -0.43373  -0.42934  -0.42521  -0.42491  -0.42350
 Alpha  occ. eigenvalues --   -0.42241  -0.42103  -0.42059  -0.41963  -0.41679
 Alpha  occ. eigenvalues --   -0.41636  -0.41622  -0.41089  -0.41022  -0.40770
 Alpha  occ. eigenvalues --   -0.40741  -0.40698  -0.40434  -0.40405  -0.40373
 Alpha  occ. eigenvalues --   -0.40216  -0.40194  -0.40174  -0.40129  -0.39877
 Alpha  occ. eigenvalues --   -0.39455  -0.39267  -0.39161  -0.39099  -0.38976
 Alpha  occ. eigenvalues --   -0.38933  -0.38877  -0.38806  -0.38622  -0.38608
 Alpha  occ. eigenvalues --   -0.38296  -0.38252  -0.38220  -0.38156  -0.37189
 Alpha  occ. eigenvalues --   -0.37105  -0.34055  -0.33949  -0.33453  -0.31374
 Alpha  occ. eigenvalues --   -0.24742
 Alpha virt. eigenvalues --   -0.09294  -0.06142  -0.05996  -0.04643  -0.04583
 Alpha virt. eigenvalues --   -0.04459  -0.01411  -0.01323  -0.01264  -0.00862
 Alpha virt. eigenvalues --   -0.00687  -0.00656  -0.00604   0.00040   0.00101

  Beta  occ. eigenvalues -- -197.09370-129.98929-129.98907-129.98884-101.61302
  Beta  occ. eigenvalues --  -22.41939 -19.28587 -19.28555 -19.28526 -19.28514
  Beta  occ. eigenvalues --  -19.28464 -19.28462 -19.28423 -19.28411 -19.28388
  Beta  occ. eigenvalues --  -19.28376 -19.28255 -19.28134 -19.26941 -19.26915
  Beta  occ. eigenvalues --  -19.26902 -19.26879 -19.26853 -19.26848 -19.26839
  Beta  occ. eigenvalues --  -19.26836 -19.26811 -19.26808 -19.26785 -19.26772
  Beta  occ. eigenvalues --  -19.26770 -19.26751 -19.26739 -19.26736 -19.26731
  Beta  occ. eigenvalues --  -19.26729 -19.26712 -19.26701 -19.26670 -19.26660
  Beta  occ. eigenvalues --  -19.26643 -19.26613 -19.24260 -19.24208 -19.24204
  Beta  occ. eigenvalues --  -19.24203 -18.92404 -18.90225 -18.90163 -13.36329
  Beta  occ. eigenvalues --  -13.36308 -13.36271 -10.69258 -10.69252 -10.69252
  Beta  occ. eigenvalues --  -10.69236 -10.69231 -10.69230 -10.69202 -10.69196
  Beta  occ. eigenvalues --  -10.69194 -10.33150 -10.32958 -10.31549 -10.30904
  Beta  occ. eigenvalues --  -10.30876 -10.30862 -10.30357 -10.30271  -9.51757
  Beta  occ. eigenvalues --   -7.27497  -7.26205  -7.26184  -3.21008  -3.20996
  Beta  occ. eigenvalues --   -3.20959  -3.20958  -3.20928  -3.20924  -3.20915
  Beta  occ. eigenvalues --   -3.20880  -3.20863  -3.20850  -3.20766  -3.20747
  Beta  occ. eigenvalues --   -2.73846  -1.85385  -1.85301  -1.85286  -1.85242
  Beta  occ. eigenvalues --   -1.85168  -1.85131  -1.85094  -1.85078  -1.85029
  Beta  occ. eigenvalues --   -1.85014  -1.84976  -1.84906  -1.84297  -1.84186
  Beta  occ. eigenvalues --   -1.84170  -1.84159  -1.84122  -1.84106  -1.84069
  Beta  occ. eigenvalues --   -1.84027  -1.84008  -1.83994  -1.83966  -1.83957
  Beta  occ. eigenvalues --   -1.83862  -1.83820  -1.83801  -1.83793  -1.83786
  Beta  occ. eigenvalues --   -1.83731  -1.83718  -1.83698  -1.83684  -1.83621
  Beta  occ. eigenvalues --   -1.83608  -1.83578  -1.79872  -1.75164  -1.75030
  Beta  occ. eigenvalues --   -1.50052  -1.50029  -1.49997  -1.08457  -1.06851
  Beta  occ. eigenvalues --   -1.06797  -1.06752  -1.05878  -1.05855  -1.05824
  Beta  occ. eigenvalues --   -1.04481  -1.04464  -1.04448  -1.03852  -1.03827
  Beta  occ. eigenvalues --   -1.03452  -1.03219  -1.03177  -1.03167  -1.03039
  Beta  occ. eigenvalues --   -1.02996  -1.02269  -1.02255  -1.02231  -1.02177
  Beta  occ. eigenvalues --   -1.02115  -1.02079  -1.02047  -1.01989  -1.01833
  Beta  occ. eigenvalues --   -1.01712  -1.01680  -1.01658  -1.01570  -1.01519
  Beta  occ. eigenvalues --   -1.01254  -1.00729  -1.00714  -1.00669  -1.00652
  Beta  occ. eigenvalues --   -0.99619  -0.99545  -0.99511  -0.96290  -0.90430
  Beta  occ. eigenvalues --   -0.85524  -0.85499  -0.85479  -0.85348  -0.85344
  Beta  occ. eigenvalues --   -0.85327  -0.85322  -0.85298  -0.85285  -0.84282
  Beta  occ. eigenvalues --   -0.83828  -0.82414  -0.72125  -0.69604  -0.65205
  Beta  occ. eigenvalues --   -0.62112  -0.61523  -0.61476  -0.61440  -0.60787
  Beta  occ. eigenvalues --   -0.58827  -0.58817  -0.58797  -0.58734  -0.58657
  Beta  occ. eigenvalues --   -0.58639  -0.58622  -0.58573  -0.58394  -0.57246
  Beta  occ. eigenvalues --   -0.57138  -0.57074  -0.57062  -0.56846  -0.56349
  Beta  occ. eigenvalues --   -0.56279  -0.56231  -0.55719  -0.55489  -0.55269
  Beta  occ. eigenvalues --   -0.55261  -0.55249  -0.54613  -0.54191  -0.54154
  Beta  occ. eigenvalues --   -0.53984  -0.53645  -0.53555  -0.53525  -0.52776
  Beta  occ. eigenvalues --   -0.52664  -0.52654  -0.52538  -0.52503  -0.51534
  Beta  occ. eigenvalues --   -0.51477  -0.51465  -0.51421  -0.51386  -0.51051
  Beta  occ. eigenvalues --   -0.50529  -0.50502  -0.50438  -0.50368  -0.50261
  Beta  occ. eigenvalues --   -0.50200  -0.50126  -0.50090  -0.50021  -0.49812
  Beta  occ. eigenvalues --   -0.49756  -0.49743  -0.49505  -0.49472  -0.49322
  Beta  occ. eigenvalues --   -0.49226  -0.49184  -0.49059  -0.49011  -0.48980
  Beta  occ. eigenvalues --   -0.48860  -0.48704  -0.48644  -0.48555  -0.47888
  Beta  occ. eigenvalues --   -0.47618  -0.47597  -0.45976  -0.45955  -0.45847
  Beta  occ. eigenvalues --   -0.45734  -0.45694  -0.45565  -0.45208  -0.45185
  Beta  occ. eigenvalues --   -0.45155  -0.45076  -0.44820  -0.44614  -0.44408
  Beta  occ. eigenvalues --   -0.44363  -0.44342  -0.44185  -0.44165  -0.44120
  Beta  occ. eigenvalues --   -0.43361  -0.43056  -0.42752  -0.42445  -0.42363
  Beta  occ. eigenvalues --   -0.42255  -0.42082  -0.42035  -0.42031  -0.41887
  Beta  occ. eigenvalues --   -0.41666  -0.41601  -0.41576  -0.41084  -0.40986
  Beta  occ. eigenvalues --   -0.40732  -0.40685  -0.40665  -0.40413  -0.40394
  Beta  occ. eigenvalues --   -0.40350  -0.40192  -0.40169  -0.40149  -0.39817
  Beta  occ. eigenvalues --   -0.39564  -0.39457  -0.39129  -0.39052  -0.39017
  Beta  occ. eigenvalues --   -0.38885  -0.38856  -0.38790  -0.38618  -0.38570
  Beta  occ. eigenvalues --   -0.38483  -0.38268  -0.38210  -0.38154  -0.37191
  Beta  occ. eigenvalues --   -0.37101  -0.36245  -0.34802  -0.34713  -0.33765
  Beta  occ. eigenvalues --   -0.29894
  Beta virt. eigenvalues --   -0.06142  -0.05997  -0.04642  -0.04582  -0.04458
  Beta virt. eigenvalues --   -0.01408  -0.01319  -0.01260  -0.00856  -0.00681
  Beta virt. eigenvalues --   -0.00655  -0.00601   0.00043   0.00111   0.00160

 Mulliken charges and spin densities:
               1          2
     1  Cl  -0.391701  -0.541624
     2  C   -0.038498  -0.102080
     3  C    0.005554   0.080796
     4  C   -0.032840  -0.098538
     5  C   -0.032580   0.062455
     6  C    0.004114  -0.113397
     7  C   -0.048790   0.061039
     8  H    0.045721   0.004320
     9  H    0.049026   0.004205
    10  H    0.054115  -0.002257
    11  H    0.054037   0.004999
    12  H    0.052519  -0.002169
    13  C    0.020410  -0.319448
    14  C   -0.008450  -0.051827
    15  H    0.073464   0.013740
    16  H    0.099559   0.002225
    17  H    0.102518   0.002041
    18  O   -0.668870  -0.000493
    19  O   -0.666787  -0.000432
    20  O   -0.661920  -0.001909
    21  O   -0.669049  -0.000467
    22  W    1.710733   0.000356
    23  W    1.648825   0.000590
    24  W    1.662199   0.000220
    25  W    1.671012   0.000237
    26  W    1.652326   0.003077
    27  W    1.706822   0.002771
    28  W    1.604649   0.003540
    29  W    1.664381   0.003198
    30  O   -0.348437  -0.000533
    31  O   -0.392343  -0.000551
    32  O   -0.391197  -0.000594
    33  O   -0.390370  -0.000550
    34  O   -0.669344  -0.000382
    35  O   -0.676528  -0.000110
    36  O   -0.667683  -0.000228
    37  O   -0.670497  -0.000302
    38  O   -0.392149   0.002148
    39  O   -0.392955   0.002209
    40  O   -0.335532  -0.001317
    41  O   -0.393396   0.002178
    42  O   -0.675743   0.000063
    43  O   -0.668731   0.000174
    44  O   -0.664393   0.000297
    45  O   -0.671252   0.000100
    46  O   -0.393091   0.002410
    47  O   -0.350892   0.002338
    48  O   -0.382800   0.001950
    49  O   -0.392701   0.002469
    50  W    1.649370   0.003219
    51  W    1.653365   0.003114
    52  W    1.667700   0.004067
    53  W    1.660020   0.003062
    54  O   -0.719395   0.000149
    55  O   -0.702475   0.000029
    56  O   -0.721247   0.000210
    57  O   -0.716894   0.000100
    58  O   -0.699500  -0.000029
    59  O   -0.721743   0.000194
    60  O   -0.719480   0.000272
    61  O   -0.717605   0.000259
    62  O   -0.719980  -0.000226
    63  O   -0.703387  -0.000022
    64  O   -0.720170  -0.000247
    65  O   -0.723459  -0.000258
    66  O   -0.882865   0.006210
    67  O   -0.883573   0.008325
    68  O   -0.879359   0.008077
    69  O   -0.889034   0.007158
    70  K    0.844726   0.000247
    71  K    0.844457   0.000283
    72  K    0.839522   0.000298
    73  V    1.218541   0.928572
 Sum of Mulliken charges =  -1.00000  -0.00000

 Dipole moment (field-independent basis, Debye):
    X=             29.4373    Y=            -12.9049    Z=            -31.0795  Tot=             44.7105
 Quadrupole moment (field-independent basis, Debye-Ang):
   XX=           -785.5698   YY=           -696.1225   ZZ=           -791.2332
   XY=            126.3177   XZ=            191.2686   YZ=            -87.2191

 Normal termination of Gaussian 16 at Sat Jun  1 12:38:18 2024.
