 Gaussian 16, Revision C.01,
 Gaussian 16:  ES64L-G16RevC.01  3-Jul-2019

 ----------------------------------------------------------------------
 # def2svp wb97xd scrf=(smd,solvent=acetonitrile) g09default scf=(xqc,m
 axcycle=64) force guess=read nosymm
 ----------------------------------------------------------------------

 ----------
 Title Card
 ----------
 Symbolic Z-matrix:
 Charge = -1 Multiplicity = 1

                          Input orientation:
 ---------------------------------------------------------------------
 Center     Atomic      Atomic             Coordinates (Angstroms)
 Number     Number       Type             X           Y           Z
 ---------------------------------------------------------------------
      1         17           0       -9.656378    8.277230   10.548400
      2          6           0       -8.342621    4.247703   12.215424
      3          6           0       -9.138498    3.931134   11.098397
      4          6           0      -10.049940    2.864815   11.214942
      5          6           0      -10.205183    2.180304   12.415653
      6          6           0       -9.439494    2.535768   13.527104
      7          6           0       -8.494201    3.557921   13.414859
      8          1           0       -7.591953    5.038281   12.145219
      9          1           0      -10.649057    2.580961   10.345194
     10          1           0      -10.924697    1.360925   12.484728
     11          1           0       -9.567273    2.007096   14.474281
     12          1           0       -7.870227    3.819469   14.273230
     13          6           0       -9.075370    4.672319    9.837383
     14          6           0       -8.407424    5.823828    9.614791
     15          1           0       -9.656882    4.239633    9.015563
     16          1           0       -8.415225    6.282313    8.624355
     17          1           0       -7.785845    6.305682   10.369037
     18          8           0       -0.975303   -1.800949    7.466424
     19          8           0       -8.391195   -1.332988    7.461745
     20          8           0       -7.020911    1.347672   10.472652
     21          8           0       -2.334334   -4.397440   10.554788
     22         74           0       -3.401869    0.689531    6.476117
     23         74           0       -5.989013   -3.819308    6.557936
     24         74           0       -3.610857    0.868742   11.417936
     25         74           0       -5.761271   -3.864023   11.482691
     26         74           0       -2.429110   -2.592911    6.403198
     27         74           0       -6.938355   -0.533833    6.371269
     28         74           0       -6.816975   -0.249836   11.560265
     29         74           0       -2.542686   -2.738413   11.602352
     30          8           0       -3.167380    1.870711    5.293371
     31          8           0       -6.122121   -5.070312    5.416301
     32          8           0       -2.682471    1.709427   12.567146
     33          8           0       -6.681105   -4.663711   12.665430
     34          8           0       -2.657465   -0.917365    5.588588
     35          8           0       -6.700635   -2.268187    5.620485
     36          8           0       -5.307331    0.550161   12.359554
     37          8           0       -4.049542   -3.532901   12.407353
     38          8           0        0.312410   -0.016868    9.279821
     39          8           0       -9.691299   -3.042754    9.327063
     40          8           0       -6.343595    3.430337    8.664254
     41          8           0       -3.011487   -6.494320    8.743717
     42          8           0       -1.779556    0.746225    7.473099
     43          8           0       -7.597084   -3.883384    7.541110
     44          8           0       -4.490317    2.195345   10.426429
     45          8           0       -4.873188   -5.232910   10.530120
     46          8           0       -1.599714   -3.536707    5.257096
     47          8           0       -7.815621    0.278766    5.179353
     48          8           0       -8.040106   -0.167110   12.736289
     49          8           0       -1.305295   -2.859263   12.760433
     50         74           0       -1.245749   -0.534063    8.837826
     51         74           0       -8.132021   -2.540085    8.874084
     52         74           0       -5.868835    1.858167    9.043270
     53         74           0       -3.495223   -4.919928    9.164122
     54          8           0       -4.210925   -3.113249    6.073260
     55          8           0       -5.149685   -0.063215    6.017295
     56          8           0       -6.167836   -1.998603   11.907841
     57          8           0       -3.171711   -0.990628   11.920887
     58          8           0       -4.351145    1.579479    7.832097
     59          8           0       -5.007553   -4.682440    7.924007
     60          8           0       -2.321243    0.564026   10.077650
     61          8           0       -7.044640   -3.615196   10.130065
     62          8           0       -2.569132   -3.910084    7.868962
     63          8           0       -6.807230    0.794340    7.802647
     64          8           0       -7.822881   -1.177482   10.139106
     65          8           0       -1.555939   -1.872632   10.139178
     66          8           0       -3.353845   -1.160136    8.010555
     67          8           0       -6.016753   -1.960217    8.033821
     68          8           0       -5.113878   -0.209914    9.942918
     69          8           0       -4.235797   -2.849098    9.975224
     70         19           0       -3.212661   -6.133290    5.646696
     71         19           0       -0.112558    0.048029   12.332754
     72         19           0       -9.284363   -2.827390   12.429402
     73         23           0       -4.682132   -1.541604    8.989264
 ---------------------------------------------------------------------

 SCF Done:  E(RwB97XD) =  -7327.70177340     A.U. after   10 cycles

 Alpha  occ. eigenvalues -- -197.29525-130.00093-130.00082-129.99975-101.48304
 Alpha  occ. eigenvalues --  -22.62640 -19.33658 -19.33650 -19.33648 -19.33625
 Alpha  occ. eigenvalues --  -19.30728 -19.30686 -19.30684 -19.30682 -19.30672
 Alpha  occ. eigenvalues --  -19.30667 -19.30666 -19.30632 -19.30555 -19.30374
 Alpha  occ. eigenvalues --  -19.30346 -19.30181 -19.29320 -19.29310 -19.29301
 Alpha  occ. eigenvalues --  -19.29276 -19.29268 -19.29254 -19.29222 -19.29198
 Alpha  occ. eigenvalues --  -19.29194 -19.29171 -19.29170 -19.29146 -19.29130
 Alpha  occ. eigenvalues --  -19.29098 -19.29090 -19.29079 -19.29078 -19.29055
 Alpha  occ. eigenvalues --  -19.29055 -19.29001 -19.28984 -19.28965 -19.28930
 Alpha  occ. eigenvalues --  -19.28854 -19.11598 -19.11590 -19.11581 -13.37498
 Alpha  occ. eigenvalues --  -13.37486 -13.37373 -10.70428 -10.70421 -10.70419
 Alpha  occ. eigenvalues --  -10.70416 -10.70409 -10.70408 -10.70304 -10.70297
 Alpha  occ. eigenvalues --  -10.70291 -10.29863 -10.29347 -10.29288 -10.29068
 Alpha  occ. eigenvalues --  -10.28980 -10.28970 -10.28102 -10.27555  -9.38777
 Alpha  occ. eigenvalues --   -7.13603  -7.13556  -7.13548  -3.23323  -3.23318
 Alpha  occ. eigenvalues --   -3.23308  -3.23299  -3.23294  -3.23282  -3.23266
 Alpha  occ. eigenvalues --   -3.23260  -3.23229  -3.22985  -3.22973  -3.22791
 Alpha  occ. eigenvalues --   -2.91860  -1.94236  -1.94201  -1.94190  -1.87723
 Alpha  occ. eigenvalues --   -1.87677  -1.87662  -1.87633  -1.87490  -1.87473
 Alpha  occ. eigenvalues --   -1.87469  -1.87453  -1.87429  -1.87284  -1.87253
 Alpha  occ. eigenvalues --   -1.87102  -1.86630  -1.86512  -1.86502  -1.86486
 Alpha  occ. eigenvalues --   -1.86460  -1.86439  -1.86346  -1.86337  -1.86319
 Alpha  occ. eigenvalues --   -1.86300  -1.86295  -1.86265  -1.86151  -1.86138
 Alpha  occ. eigenvalues --   -1.86127  -1.86118  -1.86047  -1.86032  -1.85993
 Alpha  occ. eigenvalues --   -1.85927  -1.85911  -1.85811  -1.85721  -1.85673
 Alpha  occ. eigenvalues --   -1.51186  -1.51177  -1.51071  -1.13077  -1.11308
 Alpha  occ. eigenvalues --   -1.11227  -1.11221  -1.08971  -1.08533  -1.08491
 Alpha  occ. eigenvalues --   -1.08318  -1.07570  -1.07514  -1.07501  -1.06900
 Alpha  occ. eigenvalues --   -1.06892  -1.06872  -1.06328  -1.06310  -1.05315
 Alpha  occ. eigenvalues --   -1.05305  -1.04979  -1.04976  -1.04968  -1.04191
 Alpha  occ. eigenvalues --   -1.04182  -1.04170  -1.04027  -1.04008  -1.03996
 Alpha  occ. eigenvalues --   -1.03939  -1.03915  -1.03896  -1.03763  -1.03736
 Alpha  occ. eigenvalues --   -1.03617  -1.03551  -1.03305  -1.03263  -1.03117
 Alpha  occ. eigenvalues --   -1.03103  -1.03024  -1.02962  -0.94370  -0.86655
 Alpha  occ. eigenvalues --   -0.86646  -0.86547  -0.86492  -0.86464  -0.86453
 Alpha  occ. eigenvalues --   -0.86450  -0.86448  -0.86360  -0.86322  -0.82808
 Alpha  occ. eigenvalues --   -0.79760  -0.71547  -0.69673  -0.68011  -0.64618
 Alpha  occ. eigenvalues --   -0.63993  -0.63915  -0.63906  -0.63331  -0.63313
 Alpha  occ. eigenvalues --   -0.63182  -0.62944  -0.62694  -0.62608  -0.62014
 Alpha  occ. eigenvalues --   -0.61630  -0.61619  -0.61522  -0.61258  -0.61248
 Alpha  occ. eigenvalues --   -0.61177  -0.60416  -0.59490  -0.59474  -0.59459
 Alpha  occ. eigenvalues --   -0.59421  -0.59372  -0.58574  -0.58002  -0.57975
 Alpha  occ. eigenvalues --   -0.57883  -0.57080  -0.57041  -0.57012  -0.56298
 Alpha  occ. eigenvalues --   -0.56278  -0.56122  -0.55703  -0.54861  -0.54809
 Alpha  occ. eigenvalues --   -0.54771  -0.54524  -0.54243  -0.54111  -0.54095
 Alpha  occ. eigenvalues --   -0.54018  -0.53961  -0.53236  -0.53197  -0.53068
 Alpha  occ. eigenvalues --   -0.53036  -0.52905  -0.52703  -0.52667  -0.52639
 Alpha  occ. eigenvalues --   -0.52596  -0.52512  -0.52468  -0.52445  -0.51610
 Alpha  occ. eigenvalues --   -0.51588  -0.51328  -0.51308  -0.51265  -0.51226
 Alpha  occ. eigenvalues --   -0.51172  -0.51164  -0.50933  -0.50763  -0.50585
 Alpha  occ. eigenvalues --   -0.50568  -0.50561  -0.49874  -0.49861  -0.49299
 Alpha  occ. eigenvalues --   -0.49280  -0.49250  -0.49217  -0.49162  -0.49074
 Alpha  occ. eigenvalues --   -0.48898  -0.48081  -0.48030  -0.47926  -0.47696
 Alpha  occ. eigenvalues --   -0.47387  -0.47288  -0.47247  -0.46998  -0.46928
 Alpha  occ. eigenvalues --   -0.46812  -0.46552  -0.46489  -0.46475  -0.46192
 Alpha  occ. eigenvalues --   -0.46142  -0.46107  -0.45592  -0.45101  -0.44919
 Alpha  occ. eigenvalues --   -0.44876  -0.44214  -0.44145  -0.44035  -0.43513
 Alpha  occ. eigenvalues --   -0.43277  -0.43225  -0.43114  -0.43099  -0.43066
 Alpha  occ. eigenvalues --   -0.42701  -0.42678  -0.42656  -0.42588  -0.42579
 Alpha  occ. eigenvalues --   -0.42496  -0.42461  -0.42440  -0.42284  -0.42267
 Alpha  occ. eigenvalues --   -0.42250  -0.42024  -0.41913  -0.41856  -0.41836
 Alpha  occ. eigenvalues --   -0.41170  -0.41155  -0.41132  -0.41013  -0.40545
 Alpha  occ. eigenvalues --   -0.40515  -0.40496  -0.40384  -0.39444  -0.39430
 Alpha  occ. eigenvalues --   -0.36976  -0.32544  -0.29155  -0.25090  -0.25066
 Alpha  occ. eigenvalues --   -0.23566
 Alpha virt. eigenvalues --   -0.09527  -0.09299  -0.08545  -0.08481  -0.07067
 Alpha virt. eigenvalues --   -0.07040  -0.06942  -0.04536  -0.04198  -0.04154
 Alpha virt. eigenvalues --   -0.03724  -0.03503  -0.03456  -0.03255  -0.03153

 Mulliken charges:
               1
     1  Cl  -0.896914
     2  C   -0.079370
     3  C    0.048257
     4  C   -0.078641
     5  C   -0.033816
     6  C   -0.033780
     7  C   -0.049927
     8  H    0.030583
     9  H    0.029559
    10  H    0.041204
    11  H    0.036999
    12  H    0.040100
    13  C   -0.122850
    14  C    0.021873
    15  H    0.021553
    16  H    0.037705
    17  H    0.024574
    18  O   -0.663972
    19  O   -0.663834
    20  O   -0.655461
    21  O   -0.664349
    22  W    1.736270
    23  W    1.678329
    24  W    1.688137
    25  W    1.698456
    26  W    1.678146
    27  W    1.730079
    28  W    1.621905
    29  W    1.689380
    30  O   -0.320076
    31  O   -0.365727
    32  O   -0.367861
    33  O   -0.360480
    34  O   -0.665562
    35  O   -0.671605
    36  O   -0.662017
    37  O   -0.665088
    38  O   -0.368330
    39  O   -0.365037
    40  O   -0.297389
    41  O   -0.365256
    42  O   -0.670920
    43  O   -0.664388
    44  O   -0.661840
    45  O   -0.666253
    46  O   -0.368993
    47  O   -0.320491
    48  O   -0.362484
    49  O   -0.362221
    50  W    1.676425
    51  W    1.682115
    52  W    1.685513
    53  W    1.688102
    54  O   -0.726234
    55  O   -0.709448
    56  O   -0.726755
    57  O   -0.724182
    58  O   -0.707443
    59  O   -0.728150
    60  O   -0.726170
    61  O   -0.722128
    62  O   -0.725816
    63  O   -0.708766
    64  O   -0.725337
    65  O   -0.727227
    66  O   -0.802861
    67  O   -0.802027
    68  O   -0.798784
    69  O   -0.810297
    70  K    0.863183
    71  K    0.863326
    72  K    0.860326
    73  V    1.194460
 Sum of Mulliken charges =  -1.00000

 Dipole moment (field-independent basis, Debye):
    X=             50.3735    Y=            -51.2451    Z=            -38.7158  Tot=             81.6240
 Quadrupole moment (field-independent basis, Debye-Ang):
   XX=          -1042.5353   YY=           -890.4642   ZZ=           -914.5646
   XY=            448.3530   XZ=            450.9004   YZ=           -478.3235

 Normal termination of Gaussian 16 at Sun Jun  2 17:53:24 2024.
