 Gaussian 16, Revision C.01,
 Gaussian 16:  ES64L-G16RevC.01  3-Jul-2019

 ----------------------------------------------------------------------
 # def2svp wb97xd scrf=(smd,solvent=acetonitrile) g09default scf=(xqc,m
 axcycle=64) force guess=read nosymm
 ----------------------------------------------------------------------

 ----------
 Title Card
 ----------
 Symbolic Z-matrix:
 Charge = -1 Multiplicity = 1

                          Input orientation:
 ---------------------------------------------------------------------
 Center     Atomic      Atomic             Coordinates (Angstroms)
 Number     Number       Type             X           Y           Z
 ---------------------------------------------------------------------
      1         17           0       -9.656378    8.277230   10.548400
      2          6           0       -8.342621    4.247703   12.215424
      3          6           0       -9.138498    3.931134   11.098397
      4          6           0      -10.049940    2.864815   11.214942
      5          6           0      -10.205183    2.180304   12.415653
      6          6           0       -9.439494    2.535768   13.527104
      7          6           0       -8.494201    3.557921   13.414859
      8          1           0       -7.591953    5.038281   12.145219
      9          1           0      -10.649057    2.580961   10.345194
     10          1           0      -10.924697    1.360925   12.484728
     11          1           0       -9.567273    2.007096   14.474281
     12          1           0       -7.870227    3.819469   14.273230
     13          6           0       -9.075370    4.672319    9.837383
     14          6           0       -8.407424    5.823828    9.614791
     15          1           0       -9.656882    4.239633    9.015563
     16          1           0       -8.415225    6.282313    8.624355
     17          1           0       -7.785845    6.305682   10.369037
     18          8           0       -0.975303   -1.800949    7.466424
     19          8           0       -8.391195   -1.332988    7.461745
     20          8           0       -7.020911    1.347672   10.472652
     21          8           0       -2.334334   -4.397440   10.554788
     22         74           0       -3.401869    0.689531    6.476117
     23         74           0       -5.989013   -3.819308    6.557936
     24         74           0       -3.610857    0.868742   11.417936
     25         74           0       -5.761271   -3.864023   11.482691
     26         74           0       -2.429110   -2.592911    6.403198
     27         74           0       -6.938355   -0.533833    6.371269
     28         74           0       -6.816975   -0.249836   11.560265
     29         74           0       -2.542686   -2.738413   11.602352
     30          8           0       -3.167380    1.870711    5.293371
     31          8           0       -6.122121   -5.070312    5.416301
     32          8           0       -2.682471    1.709427   12.567146
     33          8           0       -6.681105   -4.663711   12.665430
     34          8           0       -2.657465   -0.917365    5.588588
     35          8           0       -6.700635   -2.268187    5.620485
     36          8           0       -5.307331    0.550161   12.359554
     37          8           0       -4.049542   -3.532901   12.407353
     38          8           0        0.312410   -0.016868    9.279821
     39          8           0       -9.691299   -3.042754    9.327063
     40          8           0       -6.343595    3.430337    8.664254
     41          8           0       -3.011487   -6.494320    8.743717
     42          8           0       -1.779556    0.746225    7.473099
     43          8           0       -7.597084   -3.883384    7.541110
     44          8           0       -4.490317    2.195345   10.426429
     45          8           0       -4.873188   -5.232910   10.530120
     46          8           0       -1.599714   -3.536707    5.257096
     47          8           0       -7.815621    0.278766    5.179353
     48          8           0       -8.040106   -0.167110   12.736289
     49          8           0       -1.305295   -2.859263   12.760433
     50         74           0       -1.245749   -0.534063    8.837826
     51         74           0       -8.132021   -2.540085    8.874084
     52         74           0       -5.868835    1.858167    9.043270
     53         74           0       -3.495223   -4.919928    9.164122
     54          8           0       -4.210925   -3.113249    6.073260
     55          8           0       -5.149685   -0.063215    6.017295
     56          8           0       -6.167836   -1.998603   11.907841
     57          8           0       -3.171711   -0.990628   11.920887
     58          8           0       -4.351145    1.579479    7.832097
     59          8           0       -5.007553   -4.682440    7.924007
     60          8           0       -2.321243    0.564026   10.077650
     61          8           0       -7.044640   -3.615196   10.130065
     62          8           0       -2.569132   -3.910084    7.868962
     63          8           0       -6.807230    0.794340    7.802647
     64          8           0       -7.822881   -1.177482   10.139106
     65          8           0       -1.555939   -1.872632   10.139178
     66          8           0       -3.353845   -1.160136    8.010555
     67          8           0       -6.016753   -1.960217    8.033821
     68          8           0       -5.113878   -0.209914    9.942918
     69          8           0       -4.235797   -2.849098    9.975224
     70         19           0       -3.212661   -6.133290    5.646696
     71         19           0       -0.112558    0.048029   12.332754
     72         19           0       -9.284363   -2.827390   12.429402
     73         23           0       -4.682132   -1.541604    8.989264
 ---------------------------------------------------------------------

 SCF Done:  E(UwB97XD) =  -7327.70180545     A.U. after   32 cycles

 Alpha  occ. eigenvalues --  -19.24709 -18.94251 -18.93153 -18.93137 -13.36523
 Alpha  occ. eigenvalues --  -13.36466 -13.36441 -10.69450 -10.69446 -10.69444
 Alpha  occ. eigenvalues --  -10.69393 -10.69389 -10.69388 -10.69369 -10.69365
 Alpha  occ. eigenvalues --  -10.69359 -10.32998 -10.32165 -10.31975 -10.31023
 Alpha  occ. eigenvalues --  -10.30991 -10.30967 -10.30577 -10.30501  -9.52679
 Alpha  occ. eigenvalues --   -7.27564  -7.27218  -7.27214  -3.21133  -3.21100
 Alpha  occ. eigenvalues --   -3.21070  -3.21048  -3.21042  -3.21027  -3.21019
 Alpha  occ. eigenvalues --   -3.21014  -3.21004  -3.20882  -3.20879  -3.20846
 Alpha  occ. eigenvalues --   -2.78919  -1.85359  -1.85295  -1.85286  -1.85258
 Alpha  occ. eigenvalues --   -1.85148  -1.85080  -1.85064  -1.85047  -1.85033
 Alpha  occ. eigenvalues --   -1.85021  -1.85009  -1.84953  -1.84397  -1.84287
 Alpha  occ. eigenvalues --   -1.84272  -1.84256  -1.84222  -1.84213  -1.84155
 Alpha  occ. eigenvalues --   -1.84139  -1.84113  -1.84104  -1.84076  -1.84063
 Alpha  occ. eigenvalues --   -1.83968  -1.83925  -1.83888  -1.83880  -1.83866
 Alpha  occ. eigenvalues --   -1.83836  -1.83813  -1.83802  -1.83794  -1.83699
 Alpha  occ. eigenvalues --   -1.83688  -1.83680  -1.82069  -1.81722  -1.81712
 Alpha  occ. eigenvalues --   -1.50225  -1.50172  -1.50152  -1.08633  -1.07009
 Alpha  occ. eigenvalues --   -1.06966  -1.06925  -1.06018  -1.06008  -1.05982
 Alpha  occ. eigenvalues --   -1.04582  -1.04574  -1.04564  -1.03994  -1.03983
 Alpha  occ. eigenvalues --   -1.03739  -1.03385  -1.03352  -1.03331  -1.03030
 Alpha  occ. eigenvalues --   -1.02997  -1.02269  -1.02237  -1.02227  -1.02097
 Alpha  occ. eigenvalues --   -1.02009  -1.01980  -1.01910  -1.01892  -1.01773
 Alpha  occ. eigenvalues --   -1.01761  -1.01742  -1.01625  -1.01584  -1.01568
 Alpha  occ. eigenvalues --   -1.01301  -1.00826  -1.00753  -1.00689  -1.00682
 Alpha  occ. eigenvalues --   -1.00031  -0.99978  -0.99914  -0.96176  -0.89248
 Alpha  occ. eigenvalues --   -0.85670  -0.85616  -0.85605  -0.85517  -0.85499
 Alpha  occ. eigenvalues --   -0.85461  -0.85457  -0.85456  -0.85412  -0.84263
 Alpha  occ. eigenvalues --   -0.82487  -0.81106  -0.71916  -0.69613  -0.65062
 Alpha  occ. eigenvalues --   -0.62342  -0.61731  -0.61666  -0.61641  -0.60566
 Alpha  occ. eigenvalues --   -0.58980  -0.58960  -0.58938  -0.58885  -0.58819
 Alpha  occ. eigenvalues --   -0.58810  -0.58783  -0.58742  -0.58562  -0.57399
 Alpha  occ. eigenvalues --   -0.57359  -0.57341  -0.57044  -0.56743  -0.56513
 Alpha  occ. eigenvalues --   -0.56466  -0.56425  -0.56043  -0.55897  -0.55366
 Alpha  occ. eigenvalues --   -0.55355  -0.55318  -0.54452  -0.54155  -0.54134
 Alpha  occ. eigenvalues --   -0.53945  -0.53726  -0.53680  -0.53664  -0.52723
 Alpha  occ. eigenvalues --   -0.52644  -0.52607  -0.52503  -0.52465  -0.51486
 Alpha  occ. eigenvalues --   -0.51473  -0.51448  -0.51361  -0.51307  -0.50776
 Alpha  occ. eigenvalues --   -0.50566  -0.50533  -0.50485  -0.50400  -0.50329
 Alpha  occ. eigenvalues --   -0.50288  -0.50055  -0.50016  -0.49987  -0.49738
 Alpha  occ. eigenvalues --   -0.49642  -0.49598  -0.49501  -0.49478  -0.49283
 Alpha  occ. eigenvalues --   -0.49235  -0.49202  -0.49147  -0.49101  -0.49032
 Alpha  occ. eigenvalues --   -0.48703  -0.48540  -0.48519  -0.48457  -0.47650
 Alpha  occ. eigenvalues --   -0.47625  -0.47139  -0.46479  -0.46048  -0.46027
 Alpha  occ. eigenvalues --   -0.45891  -0.45828  -0.45754  -0.45622  -0.45223
 Alpha  occ. eigenvalues --   -0.45144  -0.45141  -0.44769  -0.44579  -0.44490
 Alpha  occ. eigenvalues --   -0.44475  -0.44441  -0.44300  -0.44209  -0.44174
 Alpha  occ. eigenvalues --   -0.43473  -0.43083  -0.42547  -0.42512  -0.42431
 Alpha  occ. eigenvalues --   -0.42336  -0.42197  -0.42174  -0.42167  -0.41639
 Alpha  occ. eigenvalues --   -0.41621  -0.41594  -0.41031  -0.40982  -0.40767
 Alpha  occ. eigenvalues --   -0.40756  -0.40724  -0.40358  -0.40341  -0.40314
 Alpha  occ. eigenvalues --   -0.40198  -0.40161  -0.40152  -0.40115  -0.39851
 Alpha  occ. eigenvalues --   -0.39368  -0.39261  -0.39236  -0.39124  -0.39063
 Alpha  occ. eigenvalues --   -0.38899  -0.38867  -0.38805  -0.38770  -0.38696
 Alpha  occ. eigenvalues --   -0.38302  -0.38264  -0.38215  -0.38012  -0.37214
 Alpha  occ. eigenvalues --   -0.37176  -0.34836  -0.34801  -0.33643  -0.30336
 Alpha  occ. eigenvalues --   -0.25909
 Alpha virt. eigenvalues --   -0.12183  -0.06419  -0.06355  -0.04912  -0.04873
 Alpha virt. eigenvalues --   -0.04763  -0.01524  -0.01418  -0.01378  -0.01170
 Alpha virt. eigenvalues --   -0.00933  -0.00922  -0.00894  -0.00163  -0.00098

  Beta  occ. eigenvalues -- -197.11001-129.99112-129.99056-129.99037-101.62673
  Beta  occ. eigenvalues --  -22.43410 -19.28543 -19.28508 -19.28453 -19.28412
  Beta  occ. eigenvalues --  -19.28389 -19.28370 -19.28353 -19.28350 -19.28343
  Beta  occ. eigenvalues --  -19.28278 -19.28259 -19.28163 -19.26947 -19.26916
  Beta  occ. eigenvalues --  -19.26910 -19.26860 -19.26849 -19.26828 -19.26827
  Beta  occ. eigenvalues --  -19.26825 -19.26816 -19.26810 -19.26801 -19.26789
  Beta  occ. eigenvalues --  -19.26773 -19.26764 -19.26759 -19.26758 -19.26755
  Beta  occ. eigenvalues --  -19.26751 -19.26738 -19.26727 -19.26717 -19.26708
  Beta  occ. eigenvalues --  -19.26649 -19.26604 -19.24770 -19.24742 -19.24710
  Beta  occ. eigenvalues --  -19.24683 -18.93905 -18.91697 -18.91666 -13.36523
  Beta  occ. eigenvalues --  -13.36466 -13.36441 -10.69450 -10.69446 -10.69444
  Beta  occ. eigenvalues --  -10.69393 -10.69389 -10.69388 -10.69369 -10.69365
  Beta  occ. eigenvalues --  -10.69359 -10.33271 -10.32282 -10.31926 -10.31126
  Beta  occ. eigenvalues --  -10.31113 -10.31066 -10.30520 -10.30443  -9.53132
  Beta  occ. eigenvalues --   -7.28987  -7.27528  -7.27523  -3.21132  -3.21094
  Beta  occ. eigenvalues --   -3.21069  -3.21042  -3.21042  -3.21021  -3.21013
  Beta  occ. eigenvalues --   -3.21009  -3.20998  -3.20882  -3.20874  -3.20841
  Beta  occ. eigenvalues --   -2.74853  -1.85354  -1.85290  -1.85281  -1.85250
  Beta  occ. eigenvalues --   -1.85143  -1.85074  -1.85059  -1.85041  -1.85024
  Beta  occ. eigenvalues --   -1.85013  -1.85003  -1.84945  -1.84394  -1.84284
  Beta  occ. eigenvalues --   -1.84268  -1.84253  -1.84219  -1.84209  -1.84152
  Beta  occ. eigenvalues --   -1.84137  -1.84110  -1.84101  -1.84073  -1.84060
  Beta  occ. eigenvalues --   -1.83965  -1.83922  -1.83885  -1.83877  -1.83863
  Beta  occ. eigenvalues --   -1.83833  -1.83810  -1.83799  -1.83790  -1.83696
  Beta  occ. eigenvalues --   -1.83685  -1.83678  -1.80729  -1.75994  -1.75928
  Beta  occ. eigenvalues --   -1.50225  -1.50172  -1.50152  -1.08615  -1.06989
  Beta  occ. eigenvalues --   -1.06944  -1.06898  -1.06016  -1.06006  -1.05981
  Beta  occ. eigenvalues --   -1.04583  -1.04575  -1.04562  -1.03996  -1.03982
  Beta  occ. eigenvalues --   -1.03672  -1.03354  -1.03312  -1.03296  -1.03029
  Beta  occ. eigenvalues --   -1.02989  -1.02252  -1.02213  -1.02209  -1.02088
  Beta  occ. eigenvalues --   -1.02004  -1.01967  -1.01905  -1.01878  -1.01768
  Beta  occ. eigenvalues --   -1.01759  -1.01739  -1.01622  -1.01581  -1.01552
  Beta  occ. eigenvalues --   -1.01301  -1.00787  -1.00752  -1.00689  -1.00683
  Beta  occ. eigenvalues --   -0.99897  -0.99844  -0.99797  -0.96400  -0.89907
  Beta  occ. eigenvalues --   -0.85670  -0.85616  -0.85605  -0.85517  -0.85499
  Beta  occ. eigenvalues --   -0.85461  -0.85457  -0.85456  -0.85412  -0.84744
  Beta  occ. eigenvalues --   -0.84353  -0.82709  -0.72170  -0.69733  -0.65308
  Beta  occ. eigenvalues --   -0.62342  -0.61731  -0.61665  -0.61641  -0.60775
  Beta  occ. eigenvalues --   -0.58977  -0.58959  -0.58936  -0.58808  -0.58799
  Beta  occ. eigenvalues --   -0.58774  -0.58753  -0.58686  -0.58562  -0.57360
  Beta  occ. eigenvalues --   -0.57216  -0.57172  -0.57007  -0.56910  -0.56516
  Beta  occ. eigenvalues --   -0.56433  -0.56389  -0.55852  -0.55639  -0.55346
  Beta  occ. eigenvalues --   -0.55336  -0.55318  -0.54658  -0.54147  -0.54125
  Beta  occ. eigenvalues --   -0.53935  -0.53690  -0.53652  -0.53622  -0.52782
  Beta  occ. eigenvalues --   -0.52658  -0.52594  -0.52484  -0.52460  -0.51461
  Beta  occ. eigenvalues --   -0.51448  -0.51439  -0.51305  -0.51233  -0.50969
  Beta  occ. eigenvalues --   -0.50556  -0.50477  -0.50462  -0.50336  -0.50251
  Beta  occ. eigenvalues --   -0.50167  -0.50025  -0.50013  -0.49952  -0.49686
  Beta  occ. eigenvalues --   -0.49617  -0.49561  -0.49490  -0.49467  -0.49282
  Beta  occ. eigenvalues --   -0.49214  -0.49199  -0.49122  -0.49087  -0.49012
  Beta  occ. eigenvalues --   -0.48697  -0.48536  -0.48519  -0.48451  -0.47801
  Beta  occ. eigenvalues --   -0.47590  -0.47564  -0.46023  -0.45907  -0.45871
  Beta  occ. eigenvalues --   -0.45822  -0.45673  -0.45569  -0.45223  -0.45162
  Beta  occ. eigenvalues --   -0.45146  -0.45049  -0.44768  -0.44577  -0.44474
  Beta  occ. eigenvalues --   -0.44423  -0.44411  -0.44279  -0.44188  -0.44159
  Beta  occ. eigenvalues --   -0.43467  -0.43190  -0.42489  -0.42456  -0.42401
  Beta  occ. eigenvalues --   -0.42279  -0.42253  -0.42147  -0.42130  -0.41624
  Beta  occ. eigenvalues --   -0.41602  -0.41572  -0.41369  -0.41037  -0.40939
  Beta  occ. eigenvalues --   -0.40751  -0.40693  -0.40661  -0.40343  -0.40332
  Beta  occ. eigenvalues --   -0.40298  -0.40150  -0.40139  -0.40127  -0.39794
  Beta  occ. eigenvalues --   -0.39613  -0.39367  -0.39167  -0.39090  -0.39081
  Beta  occ. eigenvalues --   -0.38893  -0.38838  -0.38812  -0.38756  -0.38707
  Beta  occ. eigenvalues --   -0.38654  -0.38299  -0.38260  -0.38211  -0.37768
  Beta  occ. eigenvalues --   -0.37216  -0.37170  -0.35783  -0.35742  -0.33922
  Beta  occ. eigenvalues --   -0.30893
  Beta virt. eigenvalues --   -0.06417  -0.06355  -0.04911  -0.04873  -0.04762
  Beta virt. eigenvalues --   -0.01520  -0.01413  -0.01373  -0.01164  -0.00928
  Beta virt. eigenvalues --   -0.00917  -0.00890  -0.00152  -0.00085  -0.00047

 Mulliken charges and spin densities:
               1          2
     1  Cl  -0.344735  -0.613222
     2  C   -0.035018  -0.094479
     3  C    0.012501   0.055970
     4  C   -0.034882  -0.090454
     5  C   -0.031536   0.057685
     6  C    0.007194  -0.114122
     7  C   -0.048100   0.057745
     8  H    0.051003   0.004149
     9  H    0.050862   0.003881
    10  H    0.055975  -0.002053
    11  H    0.056898   0.005014
    12  H    0.054624  -0.002034
    13  C    0.005148  -0.255837
    14  C   -0.045936  -0.021110
    15  H    0.076541   0.010593
    16  H    0.095149   0.001549
    17  H    0.087189  -0.001563
    18  O   -0.672962  -0.000569
    19  O   -0.672685  -0.000531
    20  O   -0.666803  -0.001629
    21  O   -0.673424  -0.000542
    22  W    1.719640   0.000360
    23  W    1.664056   0.000481
    24  W    1.675392   0.000169
    25  W    1.684341   0.000208
    26  W    1.664511   0.002695
    27  W    1.712391   0.002421
    28  W    1.613887   0.003356
    29  W    1.675000   0.002792
    30  O   -0.349997  -0.000532
    31  O   -0.394111  -0.000569
    32  O   -0.396286  -0.000611
    33  O   -0.389225  -0.000568
    34  O   -0.673885  -0.000283
    35  O   -0.679115  -0.000031
    36  O   -0.671193  -0.000135
    37  O   -0.674060  -0.000202
    38  O   -0.398132   0.002096
    39  O   -0.395169   0.002128
    40  O   -0.340307   0.000160
    41  O   -0.395311   0.002094
    42  O   -0.678672   0.000028
    43  O   -0.673100   0.000126
    44  O   -0.670360   0.000249
    45  O   -0.674768   0.000072
    46  O   -0.398883   0.002269
    47  O   -0.352208   0.002165
    48  O   -0.395572   0.001832
    49  O   -0.392391   0.002326
    50  W    1.662362   0.002751
    51  W    1.667652   0.002647
    52  W    1.678404   0.003871
    53  W    1.673433   0.002595
    54  O   -0.724123   0.000110
    55  O   -0.707597   0.000021
    56  O   -0.723336   0.000163
    57  O   -0.722181   0.000070
    58  O   -0.705322   0.000063
    59  O   -0.725302   0.000149
    60  O   -0.723584   0.000203
    61  O   -0.719709   0.000192
    62  O   -0.724283  -0.000187
    63  O   -0.707580  -0.000062
    64  O   -0.724337  -0.000212
    65  O   -0.725204  -0.000214
    66  O   -0.885301   0.005222
    67  O   -0.885305   0.007242
    68  O   -0.881975   0.006966
    69  O   -0.890283   0.006368
    70  K    0.849532   0.000190
    71  K    0.849947   0.000211
    72  K    0.846560   0.000213
    73  V    1.204058   0.937890
 Sum of Mulliken charges =  -1.00000   0.00000

 Dipole moment (field-independent basis, Debye):
    X=             28.2332    Y=            -13.5773    Z=            -30.5795  Tot=             43.7785
 Quadrupole moment (field-independent basis, Debye-Ang):
   XX=           -760.4383   YY=           -710.7317   ZZ=           -778.9646
   XY=            126.6286   XZ=            175.2407   YZ=            -91.8689

 Normal termination of Gaussian 16 at Sun Jun  2 17:43:39 2024.
