 Gaussian 16, Revision C.01,
 Gaussian 16:  ES64L-G16RevC.01  3-Jul-2019

 ----------------------------------------------------------------------
 # def2svp wb97xd scrf=(smd,solvent=acetonitrile) g09default scf=(xqc,m
 axcycle=64) force guess=read nosymm
 ----------------------------------------------------------------------

 ----------
 Title Card
 ----------
 Symbolic Z-matrix:
 Charge = -1 Multiplicity = 1

                          Input orientation:
 ---------------------------------------------------------------------
 Center     Atomic      Atomic             Coordinates (Angstroms)
 Number     Number       Type             X           Y           Z
 ---------------------------------------------------------------------
      1         17           0       -9.653199    8.276103   10.547248
      2          6           0       -8.343372    4.248664   12.214963
      3          6           0       -9.139048    3.931319   11.098000
      4          6           0      -10.050859    2.865461   11.215076
      5          6           0      -10.205400    2.180795   12.415771
      6          6           0       -9.438675    2.535667   13.526620
      7          6           0       -8.494183    3.558598   13.414419
      8          1           0       -7.593992    5.040414   12.144978
      9          1           0      -10.651233    2.582809   10.345799
     10          1           0      -10.925364    1.361795   12.485219
     11          1           0       -9.564935    2.005940   14.473430
     12          1           0       -7.870365    3.820681   14.272679
     13          6           0       -9.076739    4.672596    9.837099
     14          6           0       -8.409885    5.824946    9.615703
     15          1           0       -9.658684    4.240299    9.015363
     16          1           0       -8.419856    6.286139    8.626672
     17          1           0       -7.787866    6.305436   10.370392
     18          8           0       -0.975239   -1.801465    7.466162
     19          8           0       -8.390470   -1.332838    7.461803
     20          8           0       -7.020377    1.347438   10.472892
     21          8           0       -2.334390   -4.397672   10.554855
     22         74           0       -3.401269    0.689973    6.476707
     23         74           0       -5.988912   -3.819721    6.557972
     24         74           0       -3.610350    0.868749   11.417375
     25         74           0       -5.761273   -3.864596   11.482698
     26         74           0       -2.429236   -2.592729    6.402925
     27         74           0       -6.937618   -0.534103    6.370808
     28         74           0       -6.816251   -0.250157   11.560677
     29         74           0       -2.542921   -2.738919   11.602636
     30          8           0       -3.166784    1.871349    5.294218
     31          8           0       -6.122135   -5.070623    5.416253
     32          8           0       -2.681838    1.709165   12.566611
     33          8           0       -6.681098   -4.664509   12.665310
     34          8           0       -2.657744   -0.917340    5.588693
     35          8           0       -6.700388   -2.268443    5.620419
     36          8           0       -5.306544    0.550007   12.359419
     37          8           0       -4.049598   -3.533440   12.407568
     38          8           0        0.313177   -0.017882    9.279335
     39          8           0       -9.691052   -3.042591    9.326574
     40          8           0       -6.343868    3.430006    8.664334
     41          8           0       -3.011421   -6.494556    8.743709
     42          8           0       -1.778962    0.745658    7.473056
     43          8           0       -7.597017   -3.883335    7.541069
     44          8           0       -4.489871    2.195206   10.426232
     45          8           0       -4.873064   -5.233296   10.530236
     46          8           0       -1.599833   -3.535832    5.256316
     47          8           0       -7.814652    0.278230    5.178575
     48          8           0       -8.038880   -0.166613   12.737067
     49          8           0       -1.306085   -2.859762   12.761331
     50         74           0       -1.245145   -0.534963    8.837977
     51         74           0       -8.131683   -2.539959    8.874011
     52         74           0       -5.869065    1.857944    9.043253
     53         74           0       -3.495164   -4.920126    9.164040
     54          8           0       -4.211044   -3.113582    6.073361
     55          8           0       -5.149176   -0.063258    6.017590
     56          8           0       -6.167540   -1.998969   11.908198
     57          8           0       -3.171715   -0.991046   11.920131
     58          8           0       -4.350678    1.579341    7.832572
     59          8           0       -5.007791   -4.682872    7.924205
     60          8           0       -2.320526    0.563652   10.077310
     61          8           0       -7.044390   -3.615322   10.130051
     62          8           0       -2.569406   -3.910154    7.868938
     63          8           0       -6.806874    0.794124    7.802653
     64          8           0       -7.822389   -1.177622   10.139438
     65          8           0       -1.555322   -1.873229   10.139334
     66          8           0       -3.353613   -1.160378    8.010934
     67          8           0       -6.016110   -1.960617    8.033820
     68          8           0       -5.113399   -0.210206    9.942815
     69          8           0       -4.235960   -2.849390    9.975372
     70         19           0       -3.212869   -6.133248    5.646885
     71         19           0       -0.113383    0.046852   12.331685
     72         19           0       -9.284089   -2.826447   12.428644
     73         23           0       -4.681828   -1.541954    8.989395
 ---------------------------------------------------------------------

 SCF Done:  E(RwB97XD) =  -7327.70179150     A.U. after   10 cycles

 Alpha  occ. eigenvalues -- -197.29511-130.00091-130.00084-129.99976-101.48316
 Alpha  occ. eigenvalues --  -22.62628 -19.33652 -19.33645 -19.33643 -19.33619
 Alpha  occ. eigenvalues --  -19.30728 -19.30686 -19.30685 -19.30683 -19.30672
 Alpha  occ. eigenvalues --  -19.30667 -19.30666 -19.30633 -19.30556 -19.30373
 Alpha  occ. eigenvalues --  -19.30346 -19.30182 -19.29319 -19.29310 -19.29300
 Alpha  occ. eigenvalues --  -19.29276 -19.29268 -19.29255 -19.29223 -19.29199
 Alpha  occ. eigenvalues --  -19.29195 -19.29171 -19.29170 -19.29146 -19.29130
 Alpha  occ. eigenvalues --  -19.29099 -19.29090 -19.29081 -19.29079 -19.29055
 Alpha  occ. eigenvalues --  -19.29055 -19.29002 -19.28985 -19.28965 -19.28931
 Alpha  occ. eigenvalues --  -19.28855 -19.11585 -19.11577 -19.11568 -13.37496
 Alpha  occ. eigenvalues --  -13.37487 -13.37374 -10.70425 -10.70418 -10.70417
 Alpha  occ. eigenvalues --  -10.70416 -10.70410 -10.70409 -10.70304 -10.70298
 Alpha  occ. eigenvalues --  -10.70292 -10.29858 -10.29346 -10.29286 -10.29064
 Alpha  occ. eigenvalues --  -10.28976 -10.28965 -10.28095 -10.27540  -9.38790
 Alpha  occ. eigenvalues --   -7.13616  -7.13568  -7.13560  -3.23323  -3.23318
 Alpha  occ. eigenvalues --   -3.23308  -3.23299  -3.23294  -3.23281  -3.23266
 Alpha  occ. eigenvalues --   -3.23260  -3.23229  -3.22984  -3.22971  -3.22790
 Alpha  occ. eigenvalues --   -2.91851  -1.94228  -1.94193  -1.94182  -1.87722
 Alpha  occ. eigenvalues --   -1.87677  -1.87662  -1.87633  -1.87490  -1.87473
 Alpha  occ. eigenvalues --   -1.87469  -1.87453  -1.87429  -1.87283  -1.87252
 Alpha  occ. eigenvalues --   -1.87103  -1.86630  -1.86512  -1.86502  -1.86486
 Alpha  occ. eigenvalues --   -1.86460  -1.86439  -1.86346  -1.86337  -1.86319
 Alpha  occ. eigenvalues --   -1.86300  -1.86294  -1.86265  -1.86151  -1.86138
 Alpha  occ. eigenvalues --   -1.86127  -1.86118  -1.86047  -1.86032  -1.85993
 Alpha  occ. eigenvalues --   -1.85926  -1.85910  -1.85810  -1.85720  -1.85672
 Alpha  occ. eigenvalues --   -1.51183  -1.51178  -1.51072  -1.13074  -1.11305
 Alpha  occ. eigenvalues --   -1.11223  -1.11218  -1.08970  -1.08533  -1.08491
 Alpha  occ. eigenvalues --   -1.08319  -1.07570  -1.07513  -1.07500  -1.06900
 Alpha  occ. eigenvalues --   -1.06892  -1.06873  -1.06328  -1.06310  -1.05315
 Alpha  occ. eigenvalues --   -1.05306  -1.04980  -1.04976  -1.04968  -1.04192
 Alpha  occ. eigenvalues --   -1.04182  -1.04171  -1.04027  -1.04008  -1.03996
 Alpha  occ. eigenvalues --   -1.03940  -1.03916  -1.03897  -1.03764  -1.03738
 Alpha  occ. eigenvalues --   -1.03617  -1.03552  -1.03305  -1.03263  -1.03118
 Alpha  occ. eigenvalues --   -1.03105  -1.03025  -1.02963  -0.94368  -0.86653
 Alpha  occ. eigenvalues --   -0.86647  -0.86549  -0.86490  -0.86462  -0.86454
 Alpha  occ. eigenvalues --   -0.86451  -0.86446  -0.86361  -0.86323  -0.82806
 Alpha  occ. eigenvalues --   -0.79755  -0.71562  -0.69668  -0.68008  -0.64618
 Alpha  occ. eigenvalues --   -0.63993  -0.63915  -0.63905  -0.63329  -0.63310
 Alpha  occ. eigenvalues --   -0.63181  -0.62939  -0.62692  -0.62607  -0.62012
 Alpha  occ. eigenvalues --   -0.61629  -0.61618  -0.61521  -0.61259  -0.61248
 Alpha  occ. eigenvalues --   -0.61178  -0.60417  -0.59490  -0.59473  -0.59458
 Alpha  occ. eigenvalues --   -0.59421  -0.59372  -0.58571  -0.58003  -0.57975
 Alpha  occ. eigenvalues --   -0.57883  -0.57078  -0.57040  -0.57011  -0.56298
 Alpha  occ. eigenvalues --   -0.56278  -0.56123  -0.55703  -0.54861  -0.54810
 Alpha  occ. eigenvalues --   -0.54771  -0.54522  -0.54243  -0.54111  -0.54096
 Alpha  occ. eigenvalues --   -0.54019  -0.53961  -0.53237  -0.53198  -0.53070
 Alpha  occ. eigenvalues --   -0.53037  -0.52905  -0.52705  -0.52669  -0.52639
 Alpha  occ. eigenvalues --   -0.52598  -0.52512  -0.52468  -0.52441  -0.51611
 Alpha  occ. eigenvalues --   -0.51590  -0.51328  -0.51308  -0.51265  -0.51226
 Alpha  occ. eigenvalues --   -0.51171  -0.51164  -0.50932  -0.50764  -0.50587
 Alpha  occ. eigenvalues --   -0.50570  -0.50563  -0.49874  -0.49864  -0.49299
 Alpha  occ. eigenvalues --   -0.49279  -0.49249  -0.49217  -0.49162  -0.49075
 Alpha  occ. eigenvalues --   -0.48898  -0.48080  -0.48029  -0.47926  -0.47690
 Alpha  occ. eigenvalues --   -0.47387  -0.47288  -0.47247  -0.46998  -0.46929
 Alpha  occ. eigenvalues --   -0.46812  -0.46552  -0.46490  -0.46477  -0.46191
 Alpha  occ. eigenvalues --   -0.46142  -0.46106  -0.45590  -0.45102  -0.44919
 Alpha  occ. eigenvalues --   -0.44876  -0.44214  -0.44144  -0.44034  -0.43510
 Alpha  occ. eigenvalues --   -0.43278  -0.43226  -0.43114  -0.43099  -0.43067
 Alpha  occ. eigenvalues --   -0.42702  -0.42679  -0.42656  -0.42589  -0.42579
 Alpha  occ. eigenvalues --   -0.42496  -0.42462  -0.42441  -0.42285  -0.42268
 Alpha  occ. eigenvalues --   -0.42251  -0.42025  -0.41914  -0.41857  -0.41838
 Alpha  occ. eigenvalues --   -0.41168  -0.41157  -0.41131  -0.41014  -0.40545
 Alpha  occ. eigenvalues --   -0.40516  -0.40497  -0.40383  -0.39444  -0.39431
 Alpha  occ. eigenvalues --   -0.36976  -0.32542  -0.29160  -0.25101  -0.25076
 Alpha  occ. eigenvalues --   -0.23562
 Alpha virt. eigenvalues --   -0.09515  -0.09289  -0.08542  -0.08480  -0.07064
 Alpha virt. eigenvalues --   -0.07038  -0.06942  -0.04524  -0.04190  -0.04147
 Alpha virt. eigenvalues --   -0.03722  -0.03501  -0.03453  -0.03253  -0.03151

 Mulliken charges:
               1
     1  Cl  -0.896154
     2  C   -0.079529
     3  C    0.048409
     4  C   -0.078784
     5  C   -0.033800
     6  C   -0.033814
     7  C   -0.049884
     8  H    0.030507
     9  H    0.029486
    10  H    0.041185
    11  H    0.036977
    12  H    0.040045
    13  C   -0.123127
    14  C    0.022215
    15  H    0.021435
    16  H    0.037449
    17  H    0.024543
    18  O   -0.663962
    19  O   -0.663796
    20  O   -0.655457
    21  O   -0.664343
    22  W    1.736098
    23  W    1.678268
    24  W    1.688120
    25  W    1.698424
    26  W    1.678121
    27  W    1.729962
    28  W    1.621731
    29  W    1.689317
    30  O   -0.320072
    31  O   -0.365741
    32  O   -0.367864
    33  O   -0.360446
    34  O   -0.665456
    35  O   -0.671564
    36  O   -0.661985
    37  O   -0.665021
    38  O   -0.368271
    39  O   -0.365002
    40  O   -0.297341
    41  O   -0.365270
    42  O   -0.670899
    43  O   -0.664385
    44  O   -0.661748
    45  O   -0.666220
    46  O   -0.368911
    47  O   -0.320488
    48  O   -0.362405
    49  O   -0.362228
    50  W    1.676257
    51  W    1.682042
    52  W    1.685422
    53  W    1.688022
    54  O   -0.726285
    55  O   -0.709400
    56  O   -0.726736
    57  O   -0.724201
    58  O   -0.707365
    59  O   -0.728101
    60  O   -0.726204
    61  O   -0.722101
    62  O   -0.725815
    63  O   -0.708697
    64  O   -0.725424
    65  O   -0.727199
    66  O   -0.802812
    67  O   -0.801984
    68  O   -0.798798
    69  O   -0.810396
    70  K    0.863205
    71  K    0.863244
    72  K    0.860344
    73  V    1.194656
 Sum of Mulliken charges =  -1.00000

 Dipole moment (field-independent basis, Debye):
    X=             50.3449    Y=            -51.2165    Z=            -38.7234  Tot=             81.5920
 Quadrupole moment (field-independent basis, Debye-Ang):
   XX=          -1042.1256   YY=           -890.1844   ZZ=           -914.7676
   XY=            447.9173   XZ=            450.6141   YZ=           -477.9768

 Normal termination of Gaussian 16 at Sun Jun  2 18:27:00 2024.
