 Gaussian 16, Revision C.01,
 Gaussian 16:  ES64L-G16RevC.01  3-Jul-2019

 ----------------------------------------------------------------------
 # def2svp wb97xd scrf=(smd,solvent=acetonitrile) g09default scf=(xqc,m
 axcycle=64) force guess=read nosymm
 ----------------------------------------------------------------------

 ----------
 Title Card
 ----------
 Symbolic Z-matrix:
 Charge = -1 Multiplicity = 1

                          Input orientation:
 ---------------------------------------------------------------------
 Center     Atomic      Atomic             Coordinates (Angstroms)
 Number     Number       Type             X           Y           Z
 ---------------------------------------------------------------------
      1         17           0       -9.653199    8.276103   10.547248
      2          6           0       -8.343372    4.248664   12.214963
      3          6           0       -9.139048    3.931319   11.098000
      4          6           0      -10.050859    2.865461   11.215076
      5          6           0      -10.205400    2.180795   12.415771
      6          6           0       -9.438675    2.535667   13.526620
      7          6           0       -8.494183    3.558598   13.414419
      8          1           0       -7.593992    5.040414   12.144978
      9          1           0      -10.651233    2.582809   10.345799
     10          1           0      -10.925364    1.361795   12.485219
     11          1           0       -9.564935    2.005940   14.473430
     12          1           0       -7.870365    3.820681   14.272679
     13          6           0       -9.076739    4.672596    9.837099
     14          6           0       -8.409885    5.824946    9.615703
     15          1           0       -9.658684    4.240299    9.015363
     16          1           0       -8.419856    6.286139    8.626672
     17          1           0       -7.787866    6.305436   10.370392
     18          8           0       -0.975239   -1.801465    7.466162
     19          8           0       -8.390470   -1.332838    7.461803
     20          8           0       -7.020377    1.347438   10.472892
     21          8           0       -2.334390   -4.397672   10.554855
     22         74           0       -3.401269    0.689973    6.476707
     23         74           0       -5.988912   -3.819721    6.557972
     24         74           0       -3.610350    0.868749   11.417375
     25         74           0       -5.761273   -3.864596   11.482698
     26         74           0       -2.429236   -2.592729    6.402925
     27         74           0       -6.937618   -0.534103    6.370808
     28         74           0       -6.816251   -0.250157   11.560677
     29         74           0       -2.542921   -2.738919   11.602636
     30          8           0       -3.166784    1.871349    5.294218
     31          8           0       -6.122135   -5.070623    5.416253
     32          8           0       -2.681838    1.709165   12.566611
     33          8           0       -6.681098   -4.664509   12.665310
     34          8           0       -2.657744   -0.917340    5.588693
     35          8           0       -6.700388   -2.268443    5.620419
     36          8           0       -5.306544    0.550007   12.359419
     37          8           0       -4.049598   -3.533440   12.407568
     38          8           0        0.313177   -0.017882    9.279335
     39          8           0       -9.691052   -3.042591    9.326574
     40          8           0       -6.343868    3.430006    8.664334
     41          8           0       -3.011421   -6.494556    8.743709
     42          8           0       -1.778962    0.745658    7.473056
     43          8           0       -7.597017   -3.883335    7.541069
     44          8           0       -4.489871    2.195206   10.426232
     45          8           0       -4.873064   -5.233296   10.530236
     46          8           0       -1.599833   -3.535832    5.256316
     47          8           0       -7.814652    0.278230    5.178575
     48          8           0       -8.038880   -0.166613   12.737067
     49          8           0       -1.306085   -2.859762   12.761331
     50         74           0       -1.245145   -0.534963    8.837977
     51         74           0       -8.131683   -2.539959    8.874011
     52         74           0       -5.869065    1.857944    9.043253
     53         74           0       -3.495164   -4.920126    9.164040
     54          8           0       -4.211044   -3.113582    6.073361
     55          8           0       -5.149176   -0.063258    6.017590
     56          8           0       -6.167540   -1.998969   11.908198
     57          8           0       -3.171715   -0.991046   11.920131
     58          8           0       -4.350678    1.579341    7.832572
     59          8           0       -5.007791   -4.682872    7.924205
     60          8           0       -2.320526    0.563652   10.077310
     61          8           0       -7.044390   -3.615322   10.130051
     62          8           0       -2.569406   -3.910154    7.868938
     63          8           0       -6.806874    0.794124    7.802653
     64          8           0       -7.822389   -1.177622   10.139438
     65          8           0       -1.555322   -1.873229   10.139334
     66          8           0       -3.353613   -1.160378    8.010934
     67          8           0       -6.016110   -1.960617    8.033820
     68          8           0       -5.113399   -0.210206    9.942815
     69          8           0       -4.235960   -2.849390    9.975372
     70         19           0       -3.212869   -6.133248    5.646885
     71         19           0       -0.113383    0.046852   12.331685
     72         19           0       -9.284089   -2.826447   12.428644
     73         23           0       -4.681828   -1.541954    8.989395
 ---------------------------------------------------------------------

 SCF Done:  E(UwB97XD) =  -7327.70181821     A.U. after   33 cycles

 Alpha  occ. eigenvalues --  -19.24703 -18.94234 -18.93138 -18.93119 -13.36520
 Alpha  occ. eigenvalues --  -13.36467 -13.36442 -10.69447 -10.69443 -10.69441
 Alpha  occ. eigenvalues --  -10.69394 -10.69390 -10.69389 -10.69370 -10.69366
 Alpha  occ. eigenvalues --  -10.69360 -10.33003 -10.32170 -10.31976 -10.31027
 Alpha  occ. eigenvalues --  -10.30993 -10.30969 -10.30580 -10.30504  -9.52659
 Alpha  occ. eigenvalues --   -7.27544  -7.27199  -7.27194  -3.21132  -3.21100
 Alpha  occ. eigenvalues --   -3.21070  -3.21048  -3.21042  -3.21027  -3.21018
 Alpha  occ. eigenvalues --   -3.21014  -3.21004  -3.20881  -3.20877  -3.20845
 Alpha  occ. eigenvalues --   -2.78907  -1.85359  -1.85295  -1.85286  -1.85258
 Alpha  occ. eigenvalues --   -1.85149  -1.85080  -1.85064  -1.85047  -1.85033
 Alpha  occ. eigenvalues --   -1.85021  -1.85009  -1.84953  -1.84397  -1.84286
 Alpha  occ. eigenvalues --   -1.84272  -1.84256  -1.84222  -1.84212  -1.84154
 Alpha  occ. eigenvalues --   -1.84138  -1.84113  -1.84104  -1.84075  -1.84063
 Alpha  occ. eigenvalues --   -1.83967  -1.83925  -1.83888  -1.83880  -1.83866
 Alpha  occ. eigenvalues --   -1.83836  -1.83813  -1.83801  -1.83793  -1.83698
 Alpha  occ. eigenvalues --   -1.83687  -1.83680  -1.82059  -1.81713  -1.81702
 Alpha  occ. eigenvalues --   -1.50222  -1.50173  -1.50153  -1.08633  -1.07009
 Alpha  occ. eigenvalues --   -1.06966  -1.06925  -1.06018  -1.06008  -1.05982
 Alpha  occ. eigenvalues --   -1.04583  -1.04574  -1.04564  -1.03994  -1.03983
 Alpha  occ. eigenvalues --   -1.03737  -1.03384  -1.03351  -1.03330  -1.03030
 Alpha  occ. eigenvalues --   -1.02998  -1.02270  -1.02237  -1.02228  -1.02098
 Alpha  occ. eigenvalues --   -1.02010  -1.01980  -1.01910  -1.01893  -1.01773
 Alpha  occ. eigenvalues --   -1.01762  -1.01743  -1.01625  -1.01583  -1.01569
 Alpha  occ. eigenvalues --   -1.01302  -1.00826  -1.00754  -1.00690  -1.00683
 Alpha  occ. eigenvalues --   -1.00029  -0.99975  -0.99911  -0.96180  -0.89255
 Alpha  occ. eigenvalues --   -0.85667  -0.85617  -0.85606  -0.85514  -0.85496
 Alpha  occ. eigenvalues --   -0.85462  -0.85459  -0.85457  -0.85414  -0.84266
 Alpha  occ. eigenvalues --   -0.82491  -0.81096  -0.71919  -0.69616  -0.65065
 Alpha  occ. eigenvalues --   -0.62343  -0.61732  -0.61666  -0.61641  -0.60571
 Alpha  occ. eigenvalues --   -0.58981  -0.58961  -0.58938  -0.58886  -0.58819
 Alpha  occ. eigenvalues --   -0.58809  -0.58783  -0.58742  -0.58562  -0.57399
 Alpha  occ. eigenvalues --   -0.57358  -0.57340  -0.57044  -0.56749  -0.56513
 Alpha  occ. eigenvalues --   -0.56465  -0.56425  -0.56042  -0.55895  -0.55366
 Alpha  occ. eigenvalues --   -0.55355  -0.55318  -0.54453  -0.54155  -0.54134
 Alpha  occ. eigenvalues --   -0.53947  -0.53726  -0.53680  -0.53664  -0.52726
 Alpha  occ. eigenvalues --   -0.52646  -0.52607  -0.52503  -0.52465  -0.51486
 Alpha  occ. eigenvalues --   -0.51474  -0.51450  -0.51363  -0.51310  -0.50779
 Alpha  occ. eigenvalues --   -0.50567  -0.50533  -0.50486  -0.50401  -0.50331
 Alpha  occ. eigenvalues --   -0.50288  -0.50057  -0.50018  -0.49988  -0.49739
 Alpha  occ. eigenvalues --   -0.49643  -0.49600  -0.49502  -0.49479  -0.49283
 Alpha  occ. eigenvalues --   -0.49234  -0.49201  -0.49147  -0.49101  -0.49031
 Alpha  occ. eigenvalues --   -0.48704  -0.48542  -0.48520  -0.48458  -0.47651
 Alpha  occ. eigenvalues --   -0.47627  -0.47141  -0.46480  -0.46048  -0.46027
 Alpha  occ. eigenvalues --   -0.45890  -0.45832  -0.45754  -0.45623  -0.45224
 Alpha  occ. eigenvalues --   -0.45145  -0.45141  -0.44770  -0.44579  -0.44490
 Alpha  occ. eigenvalues --   -0.44474  -0.44440  -0.44299  -0.44210  -0.44176
 Alpha  occ. eigenvalues --   -0.43472  -0.43087  -0.42546  -0.42512  -0.42431
 Alpha  occ. eigenvalues --   -0.42336  -0.42199  -0.42175  -0.42167  -0.41639
 Alpha  occ. eigenvalues --   -0.41621  -0.41594  -0.41032  -0.40983  -0.40768
 Alpha  occ. eigenvalues --   -0.40757  -0.40725  -0.40359  -0.40342  -0.40315
 Alpha  occ. eigenvalues --   -0.40199  -0.40162  -0.40153  -0.40116  -0.39852
 Alpha  occ. eigenvalues --   -0.39368  -0.39260  -0.39235  -0.39124  -0.39062
 Alpha  occ. eigenvalues --   -0.38900  -0.38868  -0.38804  -0.38768  -0.38696
 Alpha  occ. eigenvalues --   -0.38303  -0.38265  -0.38216  -0.38017  -0.37214
 Alpha  occ. eigenvalues --   -0.37176  -0.34824  -0.34788  -0.33646  -0.30349
 Alpha  occ. eigenvalues --   -0.25895
 Alpha virt. eigenvalues --   -0.12164  -0.06416  -0.06353  -0.04909  -0.04871
 Alpha virt. eigenvalues --   -0.04763  -0.01522  -0.01417  -0.01378  -0.01168
 Alpha virt. eigenvalues --   -0.00931  -0.00921  -0.00893  -0.00163  -0.00097

  Beta  occ. eigenvalues -- -197.10984-129.99108-129.99057-129.99038-101.62653
  Beta  occ. eigenvalues --  -22.43394 -19.28543 -19.28508 -19.28453 -19.28414
  Beta  occ. eigenvalues --  -19.28390 -19.28371 -19.28354 -19.28350 -19.28343
  Beta  occ. eigenvalues --  -19.28278 -19.28260 -19.28163 -19.26947 -19.26917
  Beta  occ. eigenvalues --  -19.26910 -19.26860 -19.26848 -19.26829 -19.26828
  Beta  occ. eigenvalues --  -19.26826 -19.26816 -19.26810 -19.26802 -19.26789
  Beta  occ. eigenvalues --  -19.26774 -19.26765 -19.26759 -19.26758 -19.26757
  Beta  occ. eigenvalues --  -19.26752 -19.26740 -19.26728 -19.26718 -19.26711
  Beta  occ. eigenvalues --  -19.26649 -19.26606 -19.24766 -19.24736 -19.24703
  Beta  occ. eigenvalues --  -19.24677 -18.93889 -18.91683 -18.91647 -13.36520
  Beta  occ. eigenvalues --  -13.36467 -13.36442 -10.69447 -10.69443 -10.69441
  Beta  occ. eigenvalues --  -10.69394 -10.69390 -10.69389 -10.69370 -10.69366
  Beta  occ. eigenvalues --  -10.69360 -10.33277 -10.32287 -10.31927 -10.31129
  Beta  occ. eigenvalues --  -10.31116 -10.31068 -10.30523 -10.30445  -9.53111
  Beta  occ. eigenvalues --   -7.28965  -7.27508  -7.27504  -3.21131  -3.21094
  Beta  occ. eigenvalues --   -3.21069  -3.21043  -3.21041  -3.21021  -3.21012
  Beta  occ. eigenvalues --   -3.21009  -3.20998  -3.20880  -3.20873  -3.20840
  Beta  occ. eigenvalues --   -2.74842  -1.85354  -1.85290  -1.85280  -1.85250
  Beta  occ. eigenvalues --   -1.85143  -1.85074  -1.85059  -1.85041  -1.85024
  Beta  occ. eigenvalues --   -1.85013  -1.85003  -1.84945  -1.84394  -1.84284
  Beta  occ. eigenvalues --   -1.84268  -1.84253  -1.84219  -1.84209  -1.84151
  Beta  occ. eigenvalues --   -1.84136  -1.84110  -1.84101  -1.84072  -1.84060
  Beta  occ. eigenvalues --   -1.83965  -1.83922  -1.83885  -1.83877  -1.83863
  Beta  occ. eigenvalues --   -1.83833  -1.83810  -1.83799  -1.83790  -1.83696
  Beta  occ. eigenvalues --   -1.83684  -1.83678  -1.80719  -1.75990  -1.75913
  Beta  occ. eigenvalues --   -1.50222  -1.50173  -1.50153  -1.08615  -1.06989
  Beta  occ. eigenvalues --   -1.06944  -1.06898  -1.06017  -1.06006  -1.05981
  Beta  occ. eigenvalues --   -1.04584  -1.04575  -1.04563  -1.03996  -1.03982
  Beta  occ. eigenvalues --   -1.03670  -1.03353  -1.03311  -1.03295  -1.03029
  Beta  occ. eigenvalues --   -1.02990  -1.02252  -1.02214  -1.02209  -1.02089
  Beta  occ. eigenvalues --   -1.02005  -1.01967  -1.01905  -1.01879  -1.01769
  Beta  occ. eigenvalues --   -1.01760  -1.01740  -1.01622  -1.01581  -1.01553
  Beta  occ. eigenvalues --   -1.01302  -1.00787  -1.00752  -1.00690  -1.00683
  Beta  occ. eigenvalues --   -0.99894  -0.99840  -0.99793  -0.96405  -0.89917
  Beta  occ. eigenvalues --   -0.85667  -0.85617  -0.85606  -0.85514  -0.85496
  Beta  occ. eigenvalues --   -0.85462  -0.85459  -0.85457  -0.85414  -0.84732
  Beta  occ. eigenvalues --   -0.84355  -0.82710  -0.72174  -0.69737  -0.65311
  Beta  occ. eigenvalues --   -0.62342  -0.61731  -0.61665  -0.61641  -0.60781
  Beta  occ. eigenvalues --   -0.58977  -0.58960  -0.58937  -0.58809  -0.58799
  Beta  occ. eigenvalues --   -0.58774  -0.58754  -0.58687  -0.58562  -0.57360
  Beta  occ. eigenvalues --   -0.57215  -0.57171  -0.57009  -0.56914  -0.56515
  Beta  occ. eigenvalues --   -0.56432  -0.56389  -0.55851  -0.55638  -0.55346
  Beta  occ. eigenvalues --   -0.55336  -0.55318  -0.54660  -0.54148  -0.54125
  Beta  occ. eigenvalues --   -0.53937  -0.53690  -0.53651  -0.53621  -0.52787
  Beta  occ. eigenvalues --   -0.52658  -0.52595  -0.52484  -0.52460  -0.51462
  Beta  occ. eigenvalues --   -0.51449  -0.51440  -0.51308  -0.51236  -0.50973
  Beta  occ. eigenvalues --   -0.50558  -0.50477  -0.50463  -0.50337  -0.50251
  Beta  occ. eigenvalues --   -0.50167  -0.50027  -0.50014  -0.49953  -0.49687
  Beta  occ. eigenvalues --   -0.49619  -0.49563  -0.49491  -0.49468  -0.49282
  Beta  occ. eigenvalues --   -0.49213  -0.49198  -0.49121  -0.49087  -0.49011
  Beta  occ. eigenvalues --   -0.48698  -0.48538  -0.48521  -0.48452  -0.47805
  Beta  occ. eigenvalues --   -0.47592  -0.47565  -0.46028  -0.45907  -0.45871
  Beta  occ. eigenvalues --   -0.45821  -0.45673  -0.45569  -0.45224  -0.45163
  Beta  occ. eigenvalues --   -0.45146  -0.45050  -0.44769  -0.44577  -0.44473
  Beta  occ. eigenvalues --   -0.44423  -0.44411  -0.44279  -0.44188  -0.44160
  Beta  occ. eigenvalues --   -0.43466  -0.43193  -0.42489  -0.42455  -0.42401
  Beta  occ. eigenvalues --   -0.42282  -0.42254  -0.42147  -0.42130  -0.41625
  Beta  occ. eigenvalues --   -0.41602  -0.41572  -0.41373  -0.41038  -0.40940
  Beta  occ. eigenvalues --   -0.40751  -0.40694  -0.40662  -0.40344  -0.40333
  Beta  occ. eigenvalues --   -0.40300  -0.40151  -0.40140  -0.40128  -0.39795
  Beta  occ. eigenvalues --   -0.39613  -0.39367  -0.39166  -0.39089  -0.39081
  Beta  occ. eigenvalues --   -0.38893  -0.38839  -0.38811  -0.38754  -0.38706
  Beta  occ. eigenvalues --   -0.38653  -0.38299  -0.38261  -0.38212  -0.37753
  Beta  occ. eigenvalues --   -0.37216  -0.37170  -0.35769  -0.35727  -0.33925
  Beta  occ. eigenvalues --   -0.30891
  Beta virt. eigenvalues --   -0.06415  -0.06353  -0.04908  -0.04870  -0.04762
  Beta virt. eigenvalues --   -0.01518  -0.01412  -0.01373  -0.01163  -0.00926
  Beta virt. eigenvalues --   -0.00917  -0.00889  -0.00152  -0.00084  -0.00046

 Mulliken charges and spin densities:
               1          2
     1  Cl  -0.345490  -0.612049
     2  C   -0.035021  -0.094873
     3  C    0.012482   0.056319
     4  C   -0.034871  -0.090834
     5  C   -0.031524   0.057909
     6  C    0.007275  -0.114508
     7  C   -0.048040   0.057981
     8  H    0.050993   0.004162
     9  H    0.050863   0.003897
    10  H    0.056009  -0.002062
    11  H    0.056944   0.005031
    12  H    0.054616  -0.002041
    13  C    0.005324  -0.257199
    14  C   -0.045692  -0.020518
    15  H    0.076621   0.010638
    16  H    0.095112   0.001500
    17  H    0.087292  -0.001648
    18  O   -0.672951  -0.000568
    19  O   -0.672643  -0.000531
    20  O   -0.666795  -0.001627
    21  O   -0.673417  -0.000542
    22  W    1.719451   0.000360
    23  W    1.663991   0.000481
    24  W    1.675375   0.000169
    25  W    1.684303   0.000209
    26  W    1.664483   0.002696
    27  W    1.712257   0.002423
    28  W    1.613725   0.003355
    29  W    1.674929   0.002791
    30  O   -0.349987  -0.000531
    31  O   -0.394124  -0.000570
    32  O   -0.396289  -0.000611
    33  O   -0.389191  -0.000568
    34  O   -0.673778  -0.000282
    35  O   -0.679070  -0.000029
    36  O   -0.671158  -0.000133
    37  O   -0.673997  -0.000200
    38  O   -0.398077   0.002099
    39  O   -0.395134   0.002131
    40  O   -0.340265   0.000166
    41  O   -0.395326   0.002098
    42  O   -0.678642   0.000028
    43  O   -0.673095   0.000127
    44  O   -0.670271   0.000249
    45  O   -0.674734   0.000073
    46  O   -0.398805   0.002269
    47  O   -0.352198   0.002163
    48  O   -0.395509   0.001829
    49  O   -0.392396   0.002323
    50  W    1.662191   0.002756
    51  W    1.667570   0.002652
    52  W    1.678330   0.003881
    53  W    1.673344   0.002601
    54  O   -0.724167   0.000111
    55  O   -0.707537   0.000021
    56  O   -0.723319   0.000163
    57  O   -0.722176   0.000070
    58  O   -0.705233   0.000064
    59  O   -0.725254   0.000150
    60  O   -0.723617   0.000204
    61  O   -0.719674   0.000193
    62  O   -0.724274  -0.000187
    63  O   -0.707503  -0.000062
    64  O   -0.724426  -0.000211
    65  O   -0.725185  -0.000213
    66  O   -0.885239   0.005238
    67  O   -0.885251   0.007252
    68  O   -0.881975   0.006985
    69  O   -0.890348   0.006376
    70  K    0.849551   0.000190
    71  K    0.849849   0.000211
    72  K    0.846571   0.000214
    73  V    1.204216   0.937791
 Sum of Mulliken charges =  -1.00000   0.00000

 Dipole moment (field-independent basis, Debye):
    X=             28.2133    Y=            -13.5790    Z=            -30.5887  Tot=             43.7727
 Quadrupole moment (field-independent basis, Debye-Ang):
   XX=           -760.2013   YY=           -710.8472   ZZ=           -779.1776
   XY=            126.5722   XZ=            175.0664   YZ=            -91.8727

 Normal termination of Gaussian 16 at Sun Jun  2 18:17:11 2024.
