 Gaussian 16, Revision C.01,
 Gaussian 16:  ES64L-G16RevC.01  3-Jul-2019

 ----------------------------------------------------------------------
 # def2svp wb97xd scrf=(smd,solvent=acetonitrile) g09default scf=(xqc,m
 axcycle=64) force guess=read nosymm
 ----------------------------------------------------------------------

 ----------
 Title Card
 ----------
 Symbolic Z-matrix:
 Charge = -1 Multiplicity = 1

                          Input orientation:
 ---------------------------------------------------------------------
 Center     Atomic      Atomic             Coordinates (Angstroms)
 Number     Number       Type             X           Y           Z
 ---------------------------------------------------------------------
      1         17           0       -9.649876    8.274733   10.545883
      2          6           0       -8.344377    4.249780   12.214472
      3          6           0       -9.139758    3.931587   11.097536
      4          6           0      -10.052011    2.866277   11.215218
      5          6           0      -10.205716    2.181330   12.415857
      6          6           0       -9.437563    2.535530   13.526085
      7          6           0       -8.494175    3.559454   13.413713
      8          1           0       -7.596509    5.043097   12.144689
      9          1           0      -10.653924    2.585053   10.346558
     10          1           0      -10.926166    1.362902   12.485844
     11          1           0       -9.561982    2.004478   14.472325
     12          1           0       -7.870514    3.822213   14.272015
     13          6           0       -9.078412    4.673010    9.836721
     14          6           0       -8.412620    5.826135    9.616791
     15          1           0       -9.660982    4.241245    9.015147
     16          1           0       -8.425122    6.290646    8.629409
     17          1           0       -7.789826    6.304799   10.371942
     18          8           0       -0.975191   -1.802077    7.465820
     19          8           0       -8.389608   -1.332648    7.461870
     20          8           0       -7.019739    1.347126   10.473220
     21          8           0       -2.334458   -4.397897   10.554928
     22         74           0       -3.400534    0.690547    6.477520
     23         74           0       -5.988830   -3.820288    6.558052
     24         74           0       -3.609705    0.868828   11.416662
     25         74           0       -5.761341   -3.865336   11.482678
     26         74           0       -2.429422   -2.592511    6.402467
     27         74           0       -6.936680   -0.534448    6.370205
     28         74           0       -6.815323   -0.250567   11.561232
     29         74           0       -2.543216   -2.739477   11.603058
     30          8           0       -3.166001    1.872288    5.295332
     31          8           0       -6.122203   -5.071053    5.416242
     32          8           0       -2.681068    1.708949   12.565977
     33          8           0       -6.681079   -4.665542   12.665120
     34          8           0       -2.658107   -0.917262    5.588794
     35          8           0       -6.700095   -2.268778    5.620359
     36          8           0       -5.305555    0.549807   12.359258
     37          8           0       -4.049687   -3.534071   12.407798
     38          8           0        0.314158   -0.019158    9.278773
     39          8           0       -9.690834   -3.042323    9.325983
     40          8           0       -6.344314    3.429647    8.664444
     41          8           0       -3.011254   -6.494751    8.743746
     42          8           0       -1.778230    0.744981    7.473028
     43          8           0       -7.596946   -3.883281    7.541060
     44          8           0       -4.489343    2.195062   10.426004
     45          8           0       -4.872917   -5.233739   10.530322
     46          8           0       -1.600063   -3.534735    5.255342
     47          8           0       -7.813471    0.277517    5.177580
     48          8           0       -8.037376   -0.165992   12.738090
     49          8           0       -1.307105   -2.860345   12.762460
     50         74           0       -1.244418   -0.536100    8.838151
     51         74           0       -8.131273   -2.539716    8.873907
     52         74           0       -5.869374    1.857539    9.043284
     53         74           0       -3.495005   -4.920401    9.163910
     54          8           0       -4.211227   -3.113991    6.073426
     55          8           0       -5.148554   -0.063247    6.017900
     56          8           0       -6.167221   -1.999455   11.908696
     57          8           0       -3.171646   -0.991491   11.919270
     58          8           0       -4.350121    1.579203    7.833167
     59          8           0       -5.008063   -4.683440    7.924411
     60          8           0       -2.319596    0.563249   10.076920
     61          8           0       -7.044155   -3.615492   10.130066
     62          8           0       -2.569751   -3.910240    7.868845
     63          8           0       -6.806445    0.793846    7.802651
     64          8           0       -7.821813   -1.177804   10.139894
     65          8           0       -1.554560   -1.873926   10.139554
     66          8           0       -3.353333   -1.160657    8.011368
     67          8           0       -6.015348   -1.961105    8.033822
     68          8           0       -5.112806   -0.210558    9.942687
     69          8           0       -4.236160   -2.849731    9.975548
     70         19           0       -3.213145   -6.133252    5.647105
     71         19           0       -0.114401    0.045348   12.330418
     72         19           0       -9.283807   -2.825410   12.427715
     73         23           0       -4.681484   -1.542320    8.989535
 ---------------------------------------------------------------------

 SCF Done:  E(RwB97XD) =  -7327.70181253     A.U. after   10 cycles

 Alpha  occ. eigenvalues -- -197.29494-130.00087-130.00086-129.99977-101.48329
 Alpha  occ. eigenvalues --  -22.62613 -19.33646 -19.33639 -19.33636 -19.33613
 Alpha  occ. eigenvalues --  -19.30728 -19.30688 -19.30685 -19.30683 -19.30673
 Alpha  occ. eigenvalues --  -19.30669 -19.30665 -19.30632 -19.30558 -19.30371
 Alpha  occ. eigenvalues --  -19.30346 -19.30180 -19.29319 -19.29311 -19.29300
 Alpha  occ. eigenvalues --  -19.29276 -19.29267 -19.29256 -19.29224 -19.29200
 Alpha  occ. eigenvalues --  -19.29197 -19.29172 -19.29171 -19.29146 -19.29131
 Alpha  occ. eigenvalues --  -19.29098 -19.29090 -19.29083 -19.29081 -19.29057
 Alpha  occ. eigenvalues --  -19.29055 -19.29005 -19.28986 -19.28965 -19.28934
 Alpha  occ. eigenvalues --  -19.28857 -19.11570 -19.11563 -19.11554 -13.37492
 Alpha  occ. eigenvalues --  -13.37489 -13.37375 -10.70422 -10.70419 -10.70415
 Alpha  occ. eigenvalues --  -10.70413 -10.70412 -10.70411 -10.70306 -10.70299
 Alpha  occ. eigenvalues --  -10.70293 -10.29852 -10.29344 -10.29285 -10.29060
 Alpha  occ. eigenvalues --  -10.28971 -10.28959 -10.28086 -10.27523  -9.38803
 Alpha  occ. eigenvalues --   -7.13629  -7.13582  -7.13573  -3.23323  -3.23319
 Alpha  occ. eigenvalues --   -3.23307  -3.23299  -3.23294  -3.23280  -3.23265
 Alpha  occ. eigenvalues --   -3.23260  -3.23229  -3.22983  -3.22969  -3.22789
 Alpha  occ. eigenvalues --   -2.91841  -1.94219  -1.94185  -1.94173  -1.87723
 Alpha  occ. eigenvalues --   -1.87678  -1.87662  -1.87634  -1.87491  -1.87473
 Alpha  occ. eigenvalues --   -1.87469  -1.87453  -1.87430  -1.87281  -1.87252
 Alpha  occ. eigenvalues --   -1.87101  -1.86630  -1.86512  -1.86502  -1.86486
 Alpha  occ. eigenvalues --   -1.86460  -1.86439  -1.86346  -1.86337  -1.86319
 Alpha  occ. eigenvalues --   -1.86300  -1.86294  -1.86265  -1.86151  -1.86138
 Alpha  occ. eigenvalues --   -1.86127  -1.86118  -1.86047  -1.86032  -1.85993
 Alpha  occ. eigenvalues --   -1.85926  -1.85909  -1.85809  -1.85720  -1.85672
 Alpha  occ. eigenvalues --   -1.51180  -1.51180  -1.51073  -1.13071  -1.11301
 Alpha  occ. eigenvalues --   -1.11219  -1.11215  -1.08970  -1.08533  -1.08491
 Alpha  occ. eigenvalues --   -1.08321  -1.07570  -1.07512  -1.07500  -1.06901
 Alpha  occ. eigenvalues --   -1.06893  -1.06874  -1.06328  -1.06310  -1.05317
 Alpha  occ. eigenvalues --   -1.05307  -1.04981  -1.04977  -1.04969  -1.04193
 Alpha  occ. eigenvalues --   -1.04183  -1.04172  -1.04028  -1.04009  -1.03997
 Alpha  occ. eigenvalues --   -1.03940  -1.03917  -1.03898  -1.03764  -1.03738
 Alpha  occ. eigenvalues --   -1.03618  -1.03553  -1.03304  -1.03264  -1.03118
 Alpha  occ. eigenvalues --   -1.03105  -1.03026  -1.02963  -0.94365  -0.86651
 Alpha  occ. eigenvalues --   -0.86649  -0.86550  -0.86487  -0.86459  -0.86456
 Alpha  occ. eigenvalues --   -0.86453  -0.86443  -0.86362  -0.86325  -0.82805
 Alpha  occ. eigenvalues --   -0.79749  -0.71579  -0.69663  -0.68003  -0.64619
 Alpha  occ. eigenvalues --   -0.63994  -0.63915  -0.63905  -0.63327  -0.63309
 Alpha  occ. eigenvalues --   -0.63181  -0.62932  -0.62690  -0.62607  -0.62009
 Alpha  occ. eigenvalues --   -0.61629  -0.61617  -0.61520  -0.61259  -0.61249
 Alpha  occ. eigenvalues --   -0.61179  -0.60418  -0.59489  -0.59471  -0.59457
 Alpha  occ. eigenvalues --   -0.59420  -0.59371  -0.58570  -0.58004  -0.57976
 Alpha  occ. eigenvalues --   -0.57885  -0.57077  -0.57039  -0.57010  -0.56297
 Alpha  occ. eigenvalues --   -0.56278  -0.56123  -0.55703  -0.54861  -0.54811
 Alpha  occ. eigenvalues --   -0.54771  -0.54519  -0.54243  -0.54112  -0.54097
 Alpha  occ. eigenvalues --   -0.54020  -0.53962  -0.53238  -0.53200  -0.53071
 Alpha  occ. eigenvalues --   -0.53038  -0.52905  -0.52706  -0.52671  -0.52640
 Alpha  occ. eigenvalues --   -0.52602  -0.52511  -0.52469  -0.52436  -0.51612
 Alpha  occ. eigenvalues --   -0.51592  -0.51327  -0.51309  -0.51264  -0.51226
 Alpha  occ. eigenvalues --   -0.51172  -0.51163  -0.50929  -0.50765  -0.50589
 Alpha  occ. eigenvalues --   -0.50571  -0.50565  -0.49875  -0.49866  -0.49299
 Alpha  occ. eigenvalues --   -0.49277  -0.49248  -0.49216  -0.49163  -0.49076
 Alpha  occ. eigenvalues --   -0.48898  -0.48080  -0.48029  -0.47925  -0.47684
 Alpha  occ. eigenvalues --   -0.47388  -0.47289  -0.47248  -0.46998  -0.46931
 Alpha  occ. eigenvalues --   -0.46813  -0.46551  -0.46491  -0.46479  -0.46191
 Alpha  occ. eigenvalues --   -0.46142  -0.46106  -0.45589  -0.45102  -0.44920
 Alpha  occ. eigenvalues --   -0.44877  -0.44214  -0.44144  -0.44034  -0.43506
 Alpha  occ. eigenvalues --   -0.43280  -0.43228  -0.43115  -0.43100  -0.43068
 Alpha  occ. eigenvalues --   -0.42703  -0.42680  -0.42657  -0.42589  -0.42580
 Alpha  occ. eigenvalues --   -0.42497  -0.42463  -0.42442  -0.42286  -0.42269
 Alpha  occ. eigenvalues --   -0.42253  -0.42026  -0.41915  -0.41858  -0.41839
 Alpha  occ. eigenvalues --   -0.41167  -0.41159  -0.41131  -0.41016  -0.40546
 Alpha  occ. eigenvalues --   -0.40518  -0.40498  -0.40380  -0.39444  -0.39432
 Alpha  occ. eigenvalues --   -0.36975  -0.32543  -0.29165  -0.25113  -0.25087
 Alpha  occ. eigenvalues --   -0.23556
 Alpha virt. eigenvalues --   -0.09501  -0.09277  -0.08539  -0.08477  -0.07060
 Alpha virt. eigenvalues --   -0.07034  -0.06942  -0.04510  -0.04182  -0.04138
 Alpha virt. eigenvalues --   -0.03721  -0.03498  -0.03450  -0.03250  -0.03149

 Mulliken charges:
               1
     1  Cl  -0.895325
     2  C   -0.079707
     3  C    0.048525
     4  C   -0.078954
     5  C   -0.033785
     6  C   -0.033858
     7  C   -0.049855
     8  H    0.030473
     9  H    0.029394
    10  H    0.041117
    11  H    0.036925
    12  H    0.040033
    13  C   -0.123361
    14  C    0.022612
    15  H    0.021294
    16  H    0.037165
    17  H    0.024518
    18  O   -0.663949
    19  O   -0.663729
    20  O   -0.655430
    21  O   -0.664349
    22  W    1.735892
    23  W    1.678171
    24  W    1.688083
    25  W    1.698354
    26  W    1.678070
    27  W    1.729823
    28  W    1.621519
    29  W    1.689212
    30  O   -0.320143
    31  O   -0.365744
    32  O   -0.367876
    33  O   -0.360376
    34  O   -0.665326
    35  O   -0.671509
    36  O   -0.661935
    37  O   -0.664944
    38  O   -0.368246
    39  O   -0.365024
    40  O   -0.297421
    41  O   -0.365183
    42  O   -0.670859
    43  O   -0.664374
    44  O   -0.661611
    45  O   -0.666192
    46  O   -0.368719
    47  O   -0.320472
    48  O   -0.362317
    49  O   -0.362198
    50  W    1.676049
    51  W    1.681949
    52  W    1.685341
    53  W    1.687890
    54  O   -0.726344
    55  O   -0.709325
    56  O   -0.726705
    57  O   -0.724222
    58  O   -0.707247
    59  O   -0.728035
    60  O   -0.726236
    61  O   -0.722057
    62  O   -0.725821
    63  O   -0.708597
    64  O   -0.725522
    65  O   -0.727158
    66  O   -0.802751
    67  O   -0.801936
    68  O   -0.798842
    69  O   -0.810453
    70  K    0.863248
    71  K    0.863146
    72  K    0.860373
    73  V    1.194849
 Sum of Mulliken charges =  -1.00000

 Dipole moment (field-independent basis, Debye):
    X=             50.3151    Y=            -51.1921    Z=            -38.7337  Tot=             81.5631
 Quadrupole moment (field-independent basis, Debye-Ang):
   XX=          -1041.7083   YY=           -889.8438   ZZ=           -915.0247
   XY=            447.4555   XZ=            450.3167   YZ=           -477.6450

 Normal termination of Gaussian 16 at Sun Jun  2 19:00:40 2024.
