 Gaussian 16, Revision C.01,
 Gaussian 16:  ES64L-G16RevC.01  3-Jul-2019

 ----------------------------------------------------------------------
 # def2svp wb97xd scrf=(smd,solvent=acetonitrile) g09default scf=(xqc,m
 axcycle=64) force guess=read nosymm
 ----------------------------------------------------------------------

 ----------
 Title Card
 ----------
 Symbolic Z-matrix:
 Charge = -1 Multiplicity = 1

                          Input orientation:
 ---------------------------------------------------------------------
 Center     Atomic      Atomic             Coordinates (Angstroms)
 Number     Number       Type             X           Y           Z
 ---------------------------------------------------------------------
      1         17           0       -9.649876    8.274733   10.545883
      2          6           0       -8.344377    4.249780   12.214472
      3          6           0       -9.139758    3.931587   11.097536
      4          6           0      -10.052011    2.866277   11.215218
      5          6           0      -10.205716    2.181330   12.415857
      6          6           0       -9.437563    2.535530   13.526085
      7          6           0       -8.494175    3.559454   13.413713
      8          1           0       -7.596509    5.043097   12.144689
      9          1           0      -10.653924    2.585053   10.346558
     10          1           0      -10.926166    1.362902   12.485844
     11          1           0       -9.561982    2.004478   14.472325
     12          1           0       -7.870514    3.822213   14.272015
     13          6           0       -9.078412    4.673010    9.836721
     14          6           0       -8.412620    5.826135    9.616791
     15          1           0       -9.660982    4.241245    9.015147
     16          1           0       -8.425122    6.290646    8.629409
     17          1           0       -7.789826    6.304799   10.371942
     18          8           0       -0.975191   -1.802077    7.465820
     19          8           0       -8.389608   -1.332648    7.461870
     20          8           0       -7.019739    1.347126   10.473220
     21          8           0       -2.334458   -4.397897   10.554928
     22         74           0       -3.400534    0.690547    6.477520
     23         74           0       -5.988830   -3.820288    6.558052
     24         74           0       -3.609705    0.868828   11.416662
     25         74           0       -5.761341   -3.865336   11.482678
     26         74           0       -2.429422   -2.592511    6.402467
     27         74           0       -6.936680   -0.534448    6.370205
     28         74           0       -6.815323   -0.250567   11.561232
     29         74           0       -2.543216   -2.739477   11.603058
     30          8           0       -3.166001    1.872288    5.295332
     31          8           0       -6.122203   -5.071053    5.416242
     32          8           0       -2.681068    1.708949   12.565977
     33          8           0       -6.681079   -4.665542   12.665120
     34          8           0       -2.658107   -0.917262    5.588794
     35          8           0       -6.700095   -2.268778    5.620359
     36          8           0       -5.305555    0.549807   12.359258
     37          8           0       -4.049687   -3.534071   12.407798
     38          8           0        0.314158   -0.019158    9.278773
     39          8           0       -9.690834   -3.042323    9.325983
     40          8           0       -6.344314    3.429647    8.664444
     41          8           0       -3.011254   -6.494751    8.743746
     42          8           0       -1.778230    0.744981    7.473028
     43          8           0       -7.596946   -3.883281    7.541060
     44          8           0       -4.489343    2.195062   10.426004
     45          8           0       -4.872917   -5.233739   10.530322
     46          8           0       -1.600063   -3.534735    5.255342
     47          8           0       -7.813471    0.277517    5.177580
     48          8           0       -8.037376   -0.165992   12.738090
     49          8           0       -1.307105   -2.860345   12.762460
     50         74           0       -1.244418   -0.536100    8.838151
     51         74           0       -8.131273   -2.539716    8.873907
     52         74           0       -5.869374    1.857539    9.043284
     53         74           0       -3.495005   -4.920401    9.163910
     54          8           0       -4.211227   -3.113991    6.073426
     55          8           0       -5.148554   -0.063247    6.017900
     56          8           0       -6.167221   -1.999455   11.908696
     57          8           0       -3.171646   -0.991491   11.919270
     58          8           0       -4.350121    1.579203    7.833167
     59          8           0       -5.008063   -4.683440    7.924411
     60          8           0       -2.319596    0.563249   10.076920
     61          8           0       -7.044155   -3.615492   10.130066
     62          8           0       -2.569751   -3.910240    7.868845
     63          8           0       -6.806445    0.793846    7.802651
     64          8           0       -7.821813   -1.177804   10.139894
     65          8           0       -1.554560   -1.873926   10.139554
     66          8           0       -3.353333   -1.160657    8.011368
     67          8           0       -6.015348   -1.961105    8.033822
     68          8           0       -5.112806   -0.210558    9.942687
     69          8           0       -4.236160   -2.849731    9.975548
     70         19           0       -3.213145   -6.133252    5.647105
     71         19           0       -0.114401    0.045348   12.330418
     72         19           0       -9.283807   -2.825410   12.427715
     73         23           0       -4.681484   -1.542320    8.989535
 ---------------------------------------------------------------------

 SCF Done:  E(UwB97XD) =  -7327.70183103     A.U. after   33 cycles

 Alpha  occ. eigenvalues --  -19.24697 -18.94216 -18.93121 -18.93099 -13.36515
 Alpha  occ. eigenvalues --  -13.36469 -13.36443 -10.69442 -10.69438 -10.69436
 Alpha  occ. eigenvalues --  -10.69396 -10.69392 -10.69391 -10.69372 -10.69367
 Alpha  occ. eigenvalues --  -10.69361 -10.33006 -10.32175 -10.31978 -10.31029
 Alpha  occ. eigenvalues --  -10.30997 -10.30970 -10.30582 -10.30507  -9.52637
 Alpha  occ. eigenvalues --   -7.27522  -7.27178  -7.27173  -3.21131  -3.21101
 Alpha  occ. eigenvalues --   -3.21070  -3.21049  -3.21040  -3.21027  -3.21017
 Alpha  occ. eigenvalues --   -3.21014  -3.21004  -3.20879  -3.20877  -3.20845
 Alpha  occ. eigenvalues --   -2.78894  -1.85360  -1.85295  -1.85286  -1.85258
 Alpha  occ. eigenvalues --   -1.85150  -1.85080  -1.85063  -1.85047  -1.85034
 Alpha  occ. eigenvalues --   -1.85021  -1.85008  -1.84953  -1.84397  -1.84286
 Alpha  occ. eigenvalues --   -1.84272  -1.84256  -1.84222  -1.84212  -1.84155
 Alpha  occ. eigenvalues --   -1.84139  -1.84113  -1.84104  -1.84075  -1.84063
 Alpha  occ. eigenvalues --   -1.83967  -1.83925  -1.83887  -1.83880  -1.83866
 Alpha  occ. eigenvalues --   -1.83836  -1.83813  -1.83801  -1.83793  -1.83698
 Alpha  occ. eigenvalues --   -1.83687  -1.83680  -1.82047  -1.81702  -1.81690
 Alpha  occ. eigenvalues --   -1.50218  -1.50175  -1.50155  -1.08633  -1.07009
 Alpha  occ. eigenvalues --   -1.06966  -1.06925  -1.06020  -1.06008  -1.05983
 Alpha  occ. eigenvalues --   -1.04584  -1.04575  -1.04565  -1.03994  -1.03983
 Alpha  occ. eigenvalues --   -1.03734  -1.03384  -1.03350  -1.03329  -1.03031
 Alpha  occ. eigenvalues --   -1.03000  -1.02271  -1.02238  -1.02228  -1.02099
 Alpha  occ. eigenvalues --   -1.02010  -1.01982  -1.01910  -1.01894  -1.01774
 Alpha  occ. eigenvalues --   -1.01763  -1.01744  -1.01625  -1.01583  -1.01569
 Alpha  occ. eigenvalues --   -1.01304  -1.00825  -1.00755  -1.00692  -1.00685
 Alpha  occ. eigenvalues --   -1.00026  -0.99973  -0.99908  -0.96185  -0.89263
 Alpha  occ. eigenvalues --   -0.85664  -0.85619  -0.85607  -0.85510  -0.85492
 Alpha  occ. eigenvalues --   -0.85464  -0.85460  -0.85460  -0.85415  -0.84271
 Alpha  occ. eigenvalues --   -0.82495  -0.81084  -0.71923  -0.69618  -0.65068
 Alpha  occ. eigenvalues --   -0.62343  -0.61733  -0.61666  -0.61641  -0.60577
 Alpha  occ. eigenvalues --   -0.58981  -0.58962  -0.58939  -0.58887  -0.58820
 Alpha  occ. eigenvalues --   -0.58809  -0.58783  -0.58742  -0.58562  -0.57399
 Alpha  occ. eigenvalues --   -0.57357  -0.57338  -0.57043  -0.56755  -0.56512
 Alpha  occ. eigenvalues --   -0.56464  -0.56425  -0.56041  -0.55894  -0.55367
 Alpha  occ. eigenvalues --   -0.55356  -0.55318  -0.54453  -0.54157  -0.54134
 Alpha  occ. eigenvalues --   -0.53950  -0.53726  -0.53678  -0.53664  -0.52729
 Alpha  occ. eigenvalues --   -0.52648  -0.52608  -0.52504  -0.52465  -0.51487
 Alpha  occ. eigenvalues --   -0.51475  -0.51451  -0.51366  -0.51312  -0.50782
 Alpha  occ. eigenvalues --   -0.50568  -0.50533  -0.50487  -0.50403  -0.50333
 Alpha  occ. eigenvalues --   -0.50287  -0.50058  -0.50020  -0.49990  -0.49741
 Alpha  occ. eigenvalues --   -0.49646  -0.49602  -0.49504  -0.49481  -0.49282
 Alpha  occ. eigenvalues --   -0.49234  -0.49201  -0.49146  -0.49100  -0.49030
 Alpha  occ. eigenvalues --   -0.48706  -0.48544  -0.48522  -0.48459  -0.47652
 Alpha  occ. eigenvalues --   -0.47629  -0.47145  -0.46480  -0.46048  -0.46027
 Alpha  occ. eigenvalues --   -0.45888  -0.45837  -0.45755  -0.45624  -0.45224
 Alpha  occ. eigenvalues --   -0.45146  -0.45142  -0.44772  -0.44580  -0.44490
 Alpha  occ. eigenvalues --   -0.44474  -0.44440  -0.44299  -0.44211  -0.44178
 Alpha  occ. eigenvalues --   -0.43471  -0.43094  -0.42546  -0.42512  -0.42432
 Alpha  occ. eigenvalues --   -0.42335  -0.42199  -0.42176  -0.42167  -0.41639
 Alpha  occ. eigenvalues --   -0.41622  -0.41594  -0.41033  -0.40984  -0.40769
 Alpha  occ. eigenvalues --   -0.40758  -0.40727  -0.40362  -0.40344  -0.40317
 Alpha  occ. eigenvalues --   -0.40200  -0.40164  -0.40154  -0.40117  -0.39854
 Alpha  occ. eigenvalues --   -0.39368  -0.39261  -0.39233  -0.39125  -0.39061
 Alpha  occ. eigenvalues --   -0.38900  -0.38869  -0.38804  -0.38767  -0.38696
 Alpha  occ. eigenvalues --   -0.38303  -0.38266  -0.38218  -0.38023  -0.37214
 Alpha  occ. eigenvalues --   -0.37177  -0.34810  -0.34774  -0.33651  -0.30363
 Alpha  occ. eigenvalues --   -0.25879
 Alpha virt. eigenvalues --   -0.12143  -0.06413  -0.06351  -0.04906  -0.04868
 Alpha virt. eigenvalues --   -0.04763  -0.01521  -0.01416  -0.01378  -0.01167
 Alpha virt. eigenvalues --   -0.00930  -0.00921  -0.00891  -0.00162  -0.00096

  Beta  occ. eigenvalues -- -197.10964-129.99104-129.99059-129.99040-101.62631
  Beta  occ. eigenvalues --  -22.43376 -19.28543 -19.28509 -19.28452 -19.28416
  Beta  occ. eigenvalues --  -19.28391 -19.28371 -19.28355 -19.28352 -19.28346
  Beta  occ. eigenvalues --  -19.28276 -19.28259 -19.28164 -19.26946 -19.26918
  Beta  occ. eigenvalues --  -19.26911 -19.26859 -19.26848 -19.26831 -19.26830
  Beta  occ. eigenvalues --  -19.26827 -19.26816 -19.26809 -19.26804 -19.26790
  Beta  occ. eigenvalues --  -19.26777 -19.26768 -19.26760 -19.26758 -19.26758
  Beta  occ. eigenvalues --  -19.26752 -19.26742 -19.26729 -19.26718 -19.26713
  Beta  occ. eigenvalues --  -19.26650 -19.26609 -19.24759 -19.24729 -19.24698
  Beta  occ. eigenvalues --  -19.24672 -18.93871 -18.91668 -18.91626 -13.36515
  Beta  occ. eigenvalues --  -13.36469 -13.36443 -10.69442 -10.69438 -10.69436
  Beta  occ. eigenvalues --  -10.69396 -10.69392 -10.69391 -10.69372 -10.69367
  Beta  occ. eigenvalues --  -10.69361 -10.33282 -10.32292 -10.31929 -10.31132
  Beta  occ. eigenvalues --  -10.31120 -10.31070 -10.30524 -10.30448  -9.53089
  Beta  occ. eigenvalues --   -7.28941  -7.27487  -7.27482  -3.21131  -3.21095
  Beta  occ. eigenvalues --   -3.21069  -3.21043  -3.21040  -3.21021  -3.21012
  Beta  occ. eigenvalues --   -3.21008  -3.20998  -3.20878  -3.20873  -3.20840
  Beta  occ. eigenvalues --   -2.74829  -1.85355  -1.85290  -1.85280  -1.85250
  Beta  occ. eigenvalues --   -1.85144  -1.85074  -1.85059  -1.85040  -1.85025
  Beta  occ. eigenvalues --   -1.85013  -1.85002  -1.84945  -1.84394  -1.84284
  Beta  occ. eigenvalues --   -1.84269  -1.84253  -1.84219  -1.84209  -1.84152
  Beta  occ. eigenvalues --   -1.84137  -1.84110  -1.84101  -1.84072  -1.84060
  Beta  occ. eigenvalues --   -1.83965  -1.83922  -1.83885  -1.83877  -1.83863
  Beta  occ. eigenvalues --   -1.83833  -1.83810  -1.83798  -1.83790  -1.83696
  Beta  occ. eigenvalues --   -1.83684  -1.83677  -1.80708  -1.75987  -1.75895
  Beta  occ. eigenvalues --   -1.50218  -1.50175  -1.50155  -1.08615  -1.06989
  Beta  occ. eigenvalues --   -1.06944  -1.06898  -1.06018  -1.06006  -1.05981
  Beta  occ. eigenvalues --   -1.04585  -1.04576  -1.04564  -1.03996  -1.03983
  Beta  occ. eigenvalues --   -1.03667  -1.03353  -1.03310  -1.03294  -1.03030
  Beta  occ. eigenvalues --   -1.02992  -1.02254  -1.02215  -1.02210  -1.02090
  Beta  occ. eigenvalues --   -1.02005  -1.01969  -1.01905  -1.01880  -1.01770
  Beta  occ. eigenvalues --   -1.01761  -1.01741  -1.01622  -1.01580  -1.01553
  Beta  occ. eigenvalues --   -1.01304  -1.00786  -1.00753  -1.00692  -1.00685
  Beta  occ. eigenvalues --   -0.99891  -0.99837  -0.99790  -0.96411  -0.89927
  Beta  occ. eigenvalues --   -0.85664  -0.85619  -0.85607  -0.85510  -0.85492
  Beta  occ. eigenvalues --   -0.85464  -0.85460  -0.85459  -0.85415  -0.84719
  Beta  occ. eigenvalues --   -0.84359  -0.82710  -0.72179  -0.69739  -0.65315
  Beta  occ. eigenvalues --   -0.62343  -0.61732  -0.61665  -0.61640  -0.60788
  Beta  occ. eigenvalues --   -0.58978  -0.58961  -0.58938  -0.58809  -0.58800
  Beta  occ. eigenvalues --   -0.58774  -0.58754  -0.58688  -0.58563  -0.57359
  Beta  occ. eigenvalues --   -0.57215  -0.57170  -0.57011  -0.56919  -0.56515
  Beta  occ. eigenvalues --   -0.56432  -0.56389  -0.55850  -0.55638  -0.55347
  Beta  occ. eigenvalues --   -0.55337  -0.55319  -0.54661  -0.54149  -0.54126
  Beta  occ. eigenvalues --   -0.53940  -0.53690  -0.53650  -0.53620  -0.52791
  Beta  occ. eigenvalues --   -0.52659  -0.52595  -0.52485  -0.52460  -0.51463
  Beta  occ. eigenvalues --   -0.51451  -0.51441  -0.51310  -0.51239  -0.50978
  Beta  occ. eigenvalues --   -0.50561  -0.50477  -0.50464  -0.50338  -0.50250
  Beta  occ. eigenvalues --   -0.50168  -0.50029  -0.50016  -0.49955  -0.49689
  Beta  occ. eigenvalues --   -0.49621  -0.49566  -0.49492  -0.49470  -0.49281
  Beta  occ. eigenvalues --   -0.49213  -0.49198  -0.49120  -0.49087  -0.49010
  Beta  occ. eigenvalues --   -0.48700  -0.48540  -0.48522  -0.48452  -0.47810
  Beta  occ. eigenvalues --   -0.47596  -0.47567  -0.46033  -0.45907  -0.45871
  Beta  occ. eigenvalues --   -0.45820  -0.45673  -0.45570  -0.45224  -0.45164
  Beta  occ. eigenvalues --   -0.45148  -0.45051  -0.44771  -0.44578  -0.44473
  Beta  occ. eigenvalues --   -0.44422  -0.44412  -0.44278  -0.44189  -0.44161
  Beta  occ. eigenvalues --   -0.43465  -0.43200  -0.42490  -0.42455  -0.42402
  Beta  occ. eigenvalues --   -0.42283  -0.42253  -0.42146  -0.42130  -0.41626
  Beta  occ. eigenvalues --   -0.41603  -0.41572  -0.41378  -0.41039  -0.40941
  Beta  occ. eigenvalues --   -0.40751  -0.40695  -0.40665  -0.40347  -0.40335
  Beta  occ. eigenvalues --   -0.40302  -0.40152  -0.40142  -0.40130  -0.39797
  Beta  occ. eigenvalues --   -0.39614  -0.39367  -0.39167  -0.39088  -0.39081
  Beta  occ. eigenvalues --   -0.38893  -0.38840  -0.38811  -0.38753  -0.38705
  Beta  occ. eigenvalues --   -0.38652  -0.38300  -0.38263  -0.38214  -0.37736
  Beta  occ. eigenvalues --   -0.37216  -0.37171  -0.35753  -0.35710  -0.33931
  Beta  occ. eigenvalues --   -0.30889
  Beta virt. eigenvalues --   -0.06412  -0.06351  -0.04904  -0.04867  -0.04762
  Beta virt. eigenvalues --   -0.01517  -0.01412  -0.01373  -0.01161  -0.00925
  Beta virt. eigenvalues --   -0.00916  -0.00887  -0.00151  -0.00083  -0.00045

 Mulliken charges and spin densities:
               1          2
     1  Cl  -0.346331  -0.610747
     2  C   -0.035027  -0.095287
     3  C    0.012418   0.056710
     4  C   -0.034872  -0.091244
     5  C   -0.031512   0.058174
     6  C    0.007381  -0.114993
     7  C   -0.048009   0.058229
     8  H    0.051034   0.004177
     9  H    0.050853   0.003914
    10  H    0.055997  -0.002073
    11  H    0.056968   0.005051
    12  H    0.054662  -0.002050
    13  C    0.005603  -0.258684
    14  C   -0.045451  -0.019877
    15  H    0.076696   0.010686
    16  H    0.095082   0.001444
    17  H    0.087417  -0.001735
    18  O   -0.672934  -0.000568
    19  O   -0.672571  -0.000531
    20  O   -0.666763  -0.001625
    21  O   -0.673417  -0.000542
    22  W    1.719226   0.000360
    23  W    1.663890   0.000482
    24  W    1.675342   0.000169
    25  W    1.684226   0.000210
    26  W    1.664427   0.002696
    27  W    1.712099   0.002425
    28  W    1.613528   0.003355
    29  W    1.674813   0.002789
    30  O   -0.350054  -0.000531
    31  O   -0.394125  -0.000570
    32  O   -0.396302  -0.000612
    33  O   -0.389122  -0.000569
    34  O   -0.673646  -0.000281
    35  O   -0.679010  -0.000027
    36  O   -0.671103  -0.000131
    37  O   -0.673922  -0.000197
    38  O   -0.398057   0.002102
    39  O   -0.395161   0.002136
    40  O   -0.340359   0.000175
    41  O   -0.395239   0.002102
    42  O   -0.678592   0.000029
    43  O   -0.673082   0.000128
    44  O   -0.670141   0.000250
    45  O   -0.674703   0.000074
    46  O   -0.398613   0.002268
    47  O   -0.352175   0.002160
    48  O   -0.395439   0.001826
    49  O   -0.392363   0.002319
    50  W    1.661981   0.002763
    51  W    1.667471   0.002660
    52  W    1.678270   0.003893
    53  W    1.673198   0.002608
    54  O   -0.724220   0.000111
    55  O   -0.707451   0.000021
    56  O   -0.723291   0.000162
    57  O   -0.722168   0.000071
    58  O   -0.705107   0.000065
    59  O   -0.725191   0.000151
    60  O   -0.723652   0.000205
    61  O   -0.719624   0.000193
    62  O   -0.724267  -0.000187
    63  O   -0.707395  -0.000061
    64  O   -0.724527  -0.000210
    65  O   -0.725155  -0.000212
    66  O   -0.885162   0.005255
    67  O   -0.885187   0.007264
    68  O   -0.881994   0.007009
    69  O   -0.890377   0.006386
    70  K    0.849593   0.000191
    71  K    0.849731   0.000212
    72  K    0.846592   0.000214
    73  V    1.204374   0.937673
 Sum of Mulliken charges =  -1.00000  -0.00000

 Dipole moment (field-independent basis, Debye):
    X=             28.1924    Y=            -13.5890    Z=            -30.6007  Tot=             43.7707
 Quadrupole moment (field-independent basis, Debye-Ang):
   XX=           -759.9609   YY=           -710.9496   ZZ=           -779.4460
   XY=            126.5290   XZ=            174.8856   YZ=            -91.9368

 Normal termination of Gaussian 16 at Sun Jun  2 18:50:42 2024.
