 Gaussian 16, Revision C.01,
 Gaussian 16:  ES64L-G16RevC.01  3-Jul-2019

 ----------------------------------------------------------------------
 # def2svp wb97xd scrf=(smd,solvent=acetonitrile) g09default scf=(xqc,m
 axcycle=64) force guess=read nosymm
 ----------------------------------------------------------------------

 ----------
 Title Card
 ----------
 Symbolic Z-matrix:
 Charge = -1 Multiplicity = 1

                          Input orientation:
 ---------------------------------------------------------------------
 Center     Atomic      Atomic             Coordinates (Angstroms)
 Number     Number       Type             X           Y           Z
 ---------------------------------------------------------------------
      1         17           0       -9.647321    8.273507   10.544663
      2          6           0       -8.345330    4.250953   12.213902
      3          6           0       -9.140518    3.931885   11.097087
      4          6           0      -10.053143    2.867058   11.215364
      5          6           0      -10.205926    2.181871   12.415979
      6          6           0       -9.436510    2.535341   13.525454
      7          6           0       -8.494118    3.560230   13.413149
      8          1           0       -7.598968    5.045629   12.144433
      9          1           0      -10.656508    2.587140   10.347285
     10          1           0      -10.926954    1.363933   12.486466
     11          1           0       -9.559094    2.003045   14.471264
     12          1           0       -7.870680    3.823694   14.271307
     13          6           0       -9.080031    4.673443    9.836404
     14          6           0       -8.414917    5.827168    9.617718
     15          1           0       -9.663277    4.242283    9.014972
     16          1           0       -8.429689    6.294708    8.631924
     17          1           0       -7.791166    6.303871   10.373292
     18          8           0       -0.975174   -1.802650    7.465467
     19          8           0       -8.388815   -1.332451    7.461920
     20          8           0       -7.019150    1.346802   10.473565
     21          8           0       -2.334517   -4.398060   10.554985
     22         74           0       -3.399806    0.691195    6.478283
     23         74           0       -5.988778   -3.820876    6.558184
     24         74           0       -3.609056    0.868957   11.415955
     25         74           0       -5.761480   -3.866094   11.482642
     26         74           0       -2.429726   -2.592213    6.402035
     27         74           0       -6.935739   -0.534797    6.369589
     28         74           0       -6.814427   -0.250983   11.561846
     29         74           0       -2.543514   -2.739944   11.603515
     30          8           0       -3.165220    1.873257    5.296541
     31          8           0       -6.122321   -5.071534    5.416267
     32          8           0       -2.680332    1.708856   12.565406
     33          8           0       -6.681044   -4.666566   12.664880
     34          8           0       -2.658458   -0.917157    5.588858
     35          8           0       -6.699829   -2.269113    5.620323
     36          8           0       -5.304588    0.549600   12.359112
     37          8           0       -4.049792   -3.534632   12.407982
     38          8           0        0.315094   -0.020420    9.278272
     39          8           0       -9.690587   -3.041955    9.325405
     40          8           0       -6.344813    3.429236    8.664589
     41          8           0       -3.010970   -6.494958    8.743793
     42          8           0       -1.777531    0.744359    7.473031
     43          8           0       -7.596888   -3.883239    7.541093
     44          8           0       -4.488858    2.194949   10.425803
     45          8           0       -4.872780   -5.234135   10.530339
     46          8           0       -1.600292   -3.533773    5.254299
     47          8           0       -7.812361    0.276797    5.176598
     48          8           0       -8.035930   -0.165408   12.739105
     49          8           0       -1.308101   -2.860867   12.763560
     50         74           0       -1.243696   -0.537216    8.838314
     51         74           0       -8.131036   -2.539447    8.873848
     52         74           0       -5.869736    1.857163    9.043333
     53         74           0       -3.494799   -4.920549    9.163791
     54          8           0       -4.211426   -3.114389    6.073417
     55          8           0       -5.147974   -0.063173    6.018137
     56          8           0       -6.166967   -1.999947   11.909227
     57          8           0       -3.171499   -0.991835   11.918533
     58          8           0       -4.349616    1.579109    7.833748
     59          8           0       -5.008294   -4.684028    7.924556
     60          8           0       -2.318666    0.562925   10.076591
     61          8           0       -7.044007   -3.615668   10.130111
     62          8           0       -2.570078   -3.910342    7.868676
     63          8           0       -6.806046    0.793571    7.802636
     64          8           0       -7.821290   -1.177980   10.140379
     65          8           0       -1.553831   -1.874553   10.139794
     66          8           0       -3.353074   -1.160898    8.011749
     67          8           0       -6.014681   -1.961562    8.033816
     68          8           0       -5.112252   -0.210856    9.942579
     69          8           0       -4.236348   -2.850026    9.975699
     70         19           0       -3.213425   -6.133320    5.647296
     71         19           0       -0.115362    0.043856   12.329268
     72         19           0       -9.283602   -2.824546   12.426835
     73         23           0       -4.681140   -1.542644    8.989643
 ---------------------------------------------------------------------

 SCF Done:  E(RwB97XD) =  -7327.70183098     A.U. after   10 cycles

 Alpha  occ. eigenvalues -- -197.29480-130.00087-130.00084-129.99980-101.48340
 Alpha  occ. eigenvalues --  -22.62600 -19.33641 -19.33633 -19.33630 -19.33608
 Alpha  occ. eigenvalues --  -19.30728 -19.30688 -19.30686 -19.30682 -19.30675
 Alpha  occ. eigenvalues --  -19.30668 -19.30666 -19.30636 -19.30560 -19.30372
 Alpha  occ. eigenvalues --  -19.30345 -19.30179 -19.29319 -19.29313 -19.29298
 Alpha  occ. eigenvalues --  -19.29276 -19.29267 -19.29257 -19.29225 -19.29202
 Alpha  occ. eigenvalues --  -19.29199 -19.29173 -19.29171 -19.29146 -19.29131
 Alpha  occ. eigenvalues --  -19.29098 -19.29090 -19.29085 -19.29084 -19.29058
 Alpha  occ. eigenvalues --  -19.29056 -19.29007 -19.28987 -19.28966 -19.28936
 Alpha  occ. eigenvalues --  -19.28858 -19.11557 -19.11549 -19.11540 -13.37490
 Alpha  occ. eigenvalues --  -13.37488 -13.37377 -10.70420 -10.70418 -10.70413
 Alpha  occ. eigenvalues --  -10.70412 -10.70411 -10.70409 -10.70308 -10.70301
 Alpha  occ. eigenvalues --  -10.70295 -10.29847 -10.29342 -10.29283 -10.29057
 Alpha  occ. eigenvalues --  -10.28967 -10.28954 -10.28079 -10.27509  -9.38815
 Alpha  occ. eigenvalues --   -7.13641  -7.13593  -7.13585  -3.23322  -3.23319
 Alpha  occ. eigenvalues --   -3.23307  -3.23299  -3.23293  -3.23279  -3.23263
 Alpha  occ. eigenvalues --   -3.23259  -3.23229  -3.22981  -3.22968  -3.22788
 Alpha  occ. eigenvalues --   -2.91832  -1.94211  -1.94177  -1.94165  -1.87722
 Alpha  occ. eigenvalues --   -1.87677  -1.87662  -1.87633  -1.87491  -1.87473
 Alpha  occ. eigenvalues --   -1.87470  -1.87454  -1.87430  -1.87281  -1.87251
 Alpha  occ. eigenvalues --   -1.87100  -1.86630  -1.86512  -1.86502  -1.86485
 Alpha  occ. eigenvalues --   -1.86460  -1.86439  -1.86346  -1.86337  -1.86319
 Alpha  occ. eigenvalues --   -1.86300  -1.86294  -1.86265  -1.86151  -1.86137
 Alpha  occ. eigenvalues --   -1.86126  -1.86118  -1.86046  -1.86032  -1.85992
 Alpha  occ. eigenvalues --   -1.85925  -1.85908  -1.85809  -1.85719  -1.85671
 Alpha  occ. eigenvalues --   -1.51181  -1.51177  -1.51075  -1.13067  -1.11298
 Alpha  occ. eigenvalues --   -1.11215  -1.11211  -1.08969  -1.08532  -1.08491
 Alpha  occ. eigenvalues --   -1.08321  -1.07569  -1.07511  -1.07499  -1.06901
 Alpha  occ. eigenvalues --   -1.06894  -1.06874  -1.06328  -1.06310  -1.05318
 Alpha  occ. eigenvalues --   -1.05309  -1.04982  -1.04978  -1.04969  -1.04193
 Alpha  occ. eigenvalues --   -1.04183  -1.04172  -1.04029  -1.04009  -1.03998
 Alpha  occ. eigenvalues --   -1.03942  -1.03918  -1.03898  -1.03764  -1.03741
 Alpha  occ. eigenvalues --   -1.03619  -1.03554  -1.03305  -1.03264  -1.03119
 Alpha  occ. eigenvalues --   -1.03106  -1.03027  -1.02964  -0.94363  -0.86650
 Alpha  occ. eigenvalues --   -0.86648  -0.86552  -0.86485  -0.86456  -0.86456
 Alpha  occ. eigenvalues --   -0.86454  -0.86440  -0.86364  -0.86327  -0.82802
 Alpha  occ. eigenvalues --   -0.79743  -0.71593  -0.69658  -0.68000  -0.64619
 Alpha  occ. eigenvalues --   -0.63994  -0.63915  -0.63904  -0.63325  -0.63306
 Alpha  occ. eigenvalues --   -0.63179  -0.62927  -0.62688  -0.62607  -0.62006
 Alpha  occ. eigenvalues --   -0.61628  -0.61616  -0.61519  -0.61259  -0.61249
 Alpha  occ. eigenvalues --   -0.61180  -0.60418  -0.59489  -0.59470  -0.59456
 Alpha  occ. eigenvalues --   -0.59419  -0.59370  -0.58568  -0.58005  -0.57976
 Alpha  occ. eigenvalues --   -0.57885  -0.57075  -0.57038  -0.57009  -0.56297
 Alpha  occ. eigenvalues --   -0.56278  -0.56123  -0.55704  -0.54862  -0.54811
 Alpha  occ. eigenvalues --   -0.54771  -0.54517  -0.54244  -0.54112  -0.54099
 Alpha  occ. eigenvalues --   -0.54020  -0.53962  -0.53239  -0.53202  -0.53072
 Alpha  occ. eigenvalues --   -0.53039  -0.52905  -0.52708  -0.52672  -0.52641
 Alpha  occ. eigenvalues --   -0.52604  -0.52511  -0.52470  -0.52432  -0.51613
 Alpha  occ. eigenvalues --   -0.51593  -0.51327  -0.51309  -0.51265  -0.51226
 Alpha  occ. eigenvalues --   -0.51172  -0.51163  -0.50929  -0.50767  -0.50591
 Alpha  occ. eigenvalues --   -0.50573  -0.50566  -0.49875  -0.49869  -0.49299
 Alpha  occ. eigenvalues --   -0.49277  -0.49247  -0.49216  -0.49163  -0.49076
 Alpha  occ. eigenvalues --   -0.48898  -0.48079  -0.48029  -0.47924  -0.47677
 Alpha  occ. eigenvalues --   -0.47388  -0.47290  -0.47248  -0.46998  -0.46933
 Alpha  occ. eigenvalues --   -0.46814  -0.46551  -0.46492  -0.46481  -0.46190
 Alpha  occ. eigenvalues --   -0.46142  -0.46105  -0.45588  -0.45103  -0.44920
 Alpha  occ. eigenvalues --   -0.44877  -0.44214  -0.44144  -0.44034  -0.43502
 Alpha  occ. eigenvalues --   -0.43281  -0.43230  -0.43116  -0.43102  -0.43069
 Alpha  occ. eigenvalues --   -0.42704  -0.42682  -0.42658  -0.42590  -0.42580
 Alpha  occ. eigenvalues --   -0.42498  -0.42465  -0.42443  -0.42288  -0.42270
 Alpha  occ. eigenvalues --   -0.42254  -0.42027  -0.41916  -0.41860  -0.41840
 Alpha  occ. eigenvalues --   -0.41165  -0.41161  -0.41129  -0.41017  -0.40546
 Alpha  occ. eigenvalues --   -0.40519  -0.40500  -0.40379  -0.39444  -0.39433
 Alpha  occ. eigenvalues --   -0.36975  -0.32542  -0.29170  -0.25122  -0.25097
 Alpha  occ. eigenvalues --   -0.23551
 Alpha virt. eigenvalues --   -0.09489  -0.09267  -0.08535  -0.08474  -0.07056
 Alpha virt. eigenvalues --   -0.07031  -0.06941  -0.04498  -0.04174  -0.04130
 Alpha virt. eigenvalues --   -0.03720  -0.03496  -0.03448  -0.03248  -0.03147

 Mulliken charges:
               1
     1  Cl  -0.894639
     2  C   -0.079896
     3  C    0.048694
     4  C   -0.079106
     5  C   -0.033767
     6  C   -0.033880
     7  C   -0.049813
     8  H    0.030391
     9  H    0.029323
    10  H    0.041099
    11  H    0.036906
    12  H    0.039965
    13  C   -0.123652
    14  C    0.023047
    15  H    0.021169
    16  H    0.036909
    17  H    0.024512
    18  O   -0.663923
    19  O   -0.663678
    20  O   -0.655413
    21  O   -0.664338
    22  W    1.735694
    23  W    1.678058
    24  W    1.688027
    25  W    1.698256
    26  W    1.678043
    27  W    1.729679
    28  W    1.621295
    29  W    1.689099
    30  O   -0.320100
    31  O   -0.365774
    32  O   -0.367925
    33  O   -0.360243
    34  O   -0.665183
    35  O   -0.671456
    36  O   -0.661890
    37  O   -0.664873
    38  O   -0.368196
    39  O   -0.364886
    40  O   -0.297442
    41  O   -0.365213
    42  O   -0.670824
    43  O   -0.664370
    44  O   -0.661480
    45  O   -0.666168
    46  O   -0.368717
    47  O   -0.320485
    48  O   -0.362210
    49  O   -0.362151
    50  W    1.675844
    51  W    1.681820
    52  W    1.685249
    53  W    1.687774
    54  O   -0.726372
    55  O   -0.709253
    56  O   -0.726673
    57  O   -0.724233
    58  O   -0.707144
    59  O   -0.727956
    60  O   -0.726253
    61  O   -0.722014
    62  O   -0.725806
    63  O   -0.708505
    64  O   -0.725620
    65  O   -0.727117
    66  O   -0.802706
    67  O   -0.801862
    68  O   -0.798868
    69  O   -0.810487
    70  K    0.863277
    71  K    0.863057
    72  K    0.860416
    73  V    1.194959
 Sum of Mulliken charges =  -1.00000

 Dipole moment (field-independent basis, Debye):
    X=             50.2844    Y=            -51.1674    Z=            -38.7393  Tot=             81.5313
 Quadrupole moment (field-independent basis, Debye-Ang):
   XX=          -1041.3023   YY=           -889.5649   ZZ=           -915.1972
   XY=            447.0772   XZ=            449.9971   YZ=           -477.3571

 Normal termination of Gaussian 16 at Sun Jun  2 19:34:11 2024.
