 Gaussian 16, Revision C.01,
 Gaussian 16:  ES64L-G16RevC.01  3-Jul-2019

 ----------------------------------------------------------------------
 # def2svp wb97xd scrf=(smd,solvent=acetonitrile) g09default scf=(xqc,m
 axcycle=64) force guess=read nosymm
 ----------------------------------------------------------------------

 ----------
 Title Card
 ----------
 Symbolic Z-matrix:
 Charge = -1 Multiplicity = 1

                          Input orientation:
 ---------------------------------------------------------------------
 Center     Atomic      Atomic             Coordinates (Angstroms)
 Number     Number       Type             X           Y           Z
 ---------------------------------------------------------------------
      1         17           0       -9.647321    8.273507   10.544663
      2          6           0       -8.345330    4.250953   12.213902
      3          6           0       -9.140518    3.931885   11.097087
      4          6           0      -10.053143    2.867058   11.215364
      5          6           0      -10.205926    2.181871   12.415979
      6          6           0       -9.436510    2.535341   13.525454
      7          6           0       -8.494118    3.560230   13.413149
      8          1           0       -7.598968    5.045629   12.144433
      9          1           0      -10.656508    2.587140   10.347285
     10          1           0      -10.926954    1.363933   12.486466
     11          1           0       -9.559094    2.003045   14.471264
     12          1           0       -7.870680    3.823694   14.271307
     13          6           0       -9.080031    4.673443    9.836404
     14          6           0       -8.414917    5.827168    9.617718
     15          1           0       -9.663277    4.242283    9.014972
     16          1           0       -8.429689    6.294708    8.631924
     17          1           0       -7.791166    6.303871   10.373292
     18          8           0       -0.975174   -1.802650    7.465467
     19          8           0       -8.388815   -1.332451    7.461920
     20          8           0       -7.019150    1.346802   10.473565
     21          8           0       -2.334517   -4.398060   10.554985
     22         74           0       -3.399806    0.691195    6.478283
     23         74           0       -5.988778   -3.820876    6.558184
     24         74           0       -3.609056    0.868957   11.415955
     25         74           0       -5.761480   -3.866094   11.482642
     26         74           0       -2.429726   -2.592213    6.402035
     27         74           0       -6.935739   -0.534797    6.369589
     28         74           0       -6.814427   -0.250983   11.561846
     29         74           0       -2.543514   -2.739944   11.603515
     30          8           0       -3.165220    1.873257    5.296541
     31          8           0       -6.122321   -5.071534    5.416267
     32          8           0       -2.680332    1.708856   12.565406
     33          8           0       -6.681044   -4.666566   12.664880
     34          8           0       -2.658458   -0.917157    5.588858
     35          8           0       -6.699829   -2.269113    5.620323
     36          8           0       -5.304588    0.549600   12.359112
     37          8           0       -4.049792   -3.534632   12.407982
     38          8           0        0.315094   -0.020420    9.278272
     39          8           0       -9.690587   -3.041955    9.325405
     40          8           0       -6.344813    3.429236    8.664589
     41          8           0       -3.010970   -6.494958    8.743793
     42          8           0       -1.777531    0.744359    7.473031
     43          8           0       -7.596888   -3.883239    7.541093
     44          8           0       -4.488858    2.194949   10.425803
     45          8           0       -4.872780   -5.234135   10.530339
     46          8           0       -1.600292   -3.533773    5.254299
     47          8           0       -7.812361    0.276797    5.176598
     48          8           0       -8.035930   -0.165408   12.739105
     49          8           0       -1.308101   -2.860867   12.763560
     50         74           0       -1.243696   -0.537216    8.838314
     51         74           0       -8.131036   -2.539447    8.873848
     52         74           0       -5.869736    1.857163    9.043333
     53         74           0       -3.494799   -4.920549    9.163791
     54          8           0       -4.211426   -3.114389    6.073417
     55          8           0       -5.147974   -0.063173    6.018137
     56          8           0       -6.166967   -1.999947   11.909227
     57          8           0       -3.171499   -0.991835   11.918533
     58          8           0       -4.349616    1.579109    7.833748
     59          8           0       -5.008294   -4.684028    7.924556
     60          8           0       -2.318666    0.562925   10.076591
     61          8           0       -7.044007   -3.615668   10.130111
     62          8           0       -2.570078   -3.910342    7.868676
     63          8           0       -6.806046    0.793571    7.802636
     64          8           0       -7.821290   -1.177980   10.140379
     65          8           0       -1.553831   -1.874553   10.139794
     66          8           0       -3.353074   -1.160898    8.011749
     67          8           0       -6.014681   -1.961562    8.033816
     68          8           0       -5.112252   -0.210856    9.942579
     69          8           0       -4.236348   -2.850026    9.975699
     70         19           0       -3.213425   -6.133320    5.647296
     71         19           0       -0.115362    0.043856   12.329268
     72         19           0       -9.283602   -2.824546   12.426835
     73         23           0       -4.681140   -1.542644    8.989643
 ---------------------------------------------------------------------

 SCF Done:  E(UwB97XD) =  -7327.70184269     A.U. after   33 cycles

 Alpha  occ. eigenvalues --  -19.24690 -18.94199 -18.93106 -18.93081 -13.36511
 Alpha  occ. eigenvalues --  -13.36470 -13.36445 -10.69438 -10.69433 -10.69431
 Alpha  occ. eigenvalues --  -10.69397 -10.69393 -10.69392 -10.69374 -10.69370
 Alpha  occ. eigenvalues --  -10.69363 -10.33011 -10.32181 -10.31980 -10.31032
 Alpha  occ. eigenvalues --  -10.30999 -10.30972 -10.30585 -10.30509  -9.52616
 Alpha  occ. eigenvalues --   -7.27501  -7.27157  -7.27153  -3.21130  -3.21101
 Alpha  occ. eigenvalues --   -3.21069  -3.21049  -3.21039  -3.21027  -3.21017
 Alpha  occ. eigenvalues --   -3.21014  -3.21003  -3.20878  -3.20876  -3.20843
 Alpha  occ. eigenvalues --   -2.78882  -1.85359  -1.85295  -1.85286  -1.85258
 Alpha  occ. eigenvalues --   -1.85150  -1.85080  -1.85064  -1.85047  -1.85033
 Alpha  occ. eigenvalues --   -1.85021  -1.85008  -1.84953  -1.84397  -1.84286
 Alpha  occ. eigenvalues --   -1.84272  -1.84255  -1.84222  -1.84212  -1.84155
 Alpha  occ. eigenvalues --   -1.84139  -1.84113  -1.84104  -1.84075  -1.84063
 Alpha  occ. eigenvalues --   -1.83967  -1.83925  -1.83887  -1.83879  -1.83866
 Alpha  occ. eigenvalues --   -1.83835  -1.83812  -1.83801  -1.83793  -1.83698
 Alpha  occ. eigenvalues --   -1.83687  -1.83679  -1.82037  -1.81692  -1.81678
 Alpha  occ. eigenvalues --   -1.50214  -1.50175  -1.50157  -1.08632  -1.07009
 Alpha  occ. eigenvalues --   -1.06966  -1.06925  -1.06020  -1.06008  -1.05983
 Alpha  occ. eigenvalues --   -1.04584  -1.04575  -1.04566  -1.03993  -1.03984
 Alpha  occ. eigenvalues --   -1.03731  -1.03383  -1.03349  -1.03327  -1.03032
 Alpha  occ. eigenvalues --   -1.03001  -1.02272  -1.02239  -1.02229  -1.02100
 Alpha  occ. eigenvalues --   -1.02011  -1.01982  -1.01911  -1.01895  -1.01774
 Alpha  occ. eigenvalues --   -1.01764  -1.01745  -1.01625  -1.01583  -1.01570
 Alpha  occ. eigenvalues --   -1.01305  -1.00825  -1.00756  -1.00693  -1.00686
 Alpha  occ. eigenvalues --   -1.00023  -0.99970  -0.99905  -0.96189  -0.89271
 Alpha  occ. eigenvalues --   -0.85660  -0.85619  -0.85609  -0.85507  -0.85488
 Alpha  occ. eigenvalues --   -0.85464  -0.85462  -0.85460  -0.85417  -0.84273
 Alpha  occ. eigenvalues --   -0.82499  -0.81072  -0.71926  -0.69622  -0.65070
 Alpha  occ. eigenvalues --   -0.62343  -0.61733  -0.61665  -0.61641  -0.60582
 Alpha  occ. eigenvalues --   -0.58982  -0.58962  -0.58940  -0.58888  -0.58820
 Alpha  occ. eigenvalues --   -0.58809  -0.58783  -0.58742  -0.58562  -0.57398
 Alpha  occ. eigenvalues --   -0.57356  -0.57337  -0.57043  -0.56761  -0.56512
 Alpha  occ. eigenvalues --   -0.56464  -0.56425  -0.56040  -0.55892  -0.55367
 Alpha  occ. eigenvalues --   -0.55356  -0.55319  -0.54452  -0.54158  -0.54135
 Alpha  occ. eigenvalues --   -0.53952  -0.53725  -0.53677  -0.53663  -0.52733
 Alpha  occ. eigenvalues --   -0.52650  -0.52609  -0.52504  -0.52466  -0.51487
 Alpha  occ. eigenvalues --   -0.51476  -0.51453  -0.51368  -0.51315  -0.50785
 Alpha  occ. eigenvalues --   -0.50569  -0.50533  -0.50487  -0.50404  -0.50335
 Alpha  occ. eigenvalues --   -0.50286  -0.50060  -0.50022  -0.49991  -0.49742
 Alpha  occ. eigenvalues --   -0.49647  -0.49605  -0.49505  -0.49483  -0.49281
 Alpha  occ. eigenvalues --   -0.49234  -0.49201  -0.49145  -0.49100  -0.49029
 Alpha  occ. eigenvalues --   -0.48707  -0.48546  -0.48523  -0.48461  -0.47654
 Alpha  occ. eigenvalues --   -0.47632  -0.47148  -0.46480  -0.46047  -0.46028
 Alpha  occ. eigenvalues --   -0.45887  -0.45841  -0.45755  -0.45625  -0.45224
 Alpha  occ. eigenvalues --   -0.45147  -0.45143  -0.44774  -0.44580  -0.44490
 Alpha  occ. eigenvalues --   -0.44474  -0.44440  -0.44299  -0.44212  -0.44180
 Alpha  occ. eigenvalues --   -0.43470  -0.43098  -0.42546  -0.42512  -0.42433
 Alpha  occ. eigenvalues --   -0.42334  -0.42203  -0.42177  -0.42167  -0.41640
 Alpha  occ. eigenvalues --   -0.41622  -0.41594  -0.41033  -0.40985  -0.40770
 Alpha  occ. eigenvalues --   -0.40759  -0.40729  -0.40364  -0.40346  -0.40318
 Alpha  occ. eigenvalues --   -0.40201  -0.40166  -0.40156  -0.40118  -0.39855
 Alpha  occ. eigenvalues --   -0.39368  -0.39261  -0.39232  -0.39126  -0.39060
 Alpha  occ. eigenvalues --   -0.38901  -0.38871  -0.38804  -0.38766  -0.38696
 Alpha  occ. eigenvalues --   -0.38304  -0.38268  -0.38219  -0.38028  -0.37214
 Alpha  occ. eigenvalues --   -0.37178  -0.34796  -0.34759  -0.33653  -0.30376
 Alpha  occ. eigenvalues --   -0.25865
 Alpha virt. eigenvalues --   -0.12123  -0.06410  -0.06348  -0.04902  -0.04865
 Alpha virt. eigenvalues --   -0.04762  -0.01520  -0.01415  -0.01377  -0.01165
 Alpha virt. eigenvalues --   -0.00928  -0.00920  -0.00890  -0.00161  -0.00095

  Beta  occ. eigenvalues -- -197.10946-129.99100-129.99060-129.99042-101.62609
  Beta  occ. eigenvalues --  -22.43360 -19.28542 -19.28508 -19.28453 -19.28419
  Beta  occ. eigenvalues --  -19.28392 -19.28374 -19.28356 -19.28352 -19.28344
  Beta  occ. eigenvalues --  -19.28277 -19.28258 -19.28164 -19.26946 -19.26919
  Beta  occ. eigenvalues --  -19.26912 -19.26859 -19.26848 -19.26833 -19.26832
  Beta  occ. eigenvalues --  -19.26828 -19.26816 -19.26809 -19.26806 -19.26789
  Beta  occ. eigenvalues --  -19.26779 -19.26771 -19.26762 -19.26760 -19.26759
  Beta  occ. eigenvalues --  -19.26753 -19.26744 -19.26730 -19.26718 -19.26714
  Beta  occ. eigenvalues --  -19.26651 -19.26611 -19.24753 -19.24724 -19.24693
  Beta  occ. eigenvalues --  -19.24665 -18.93854 -18.91654 -18.91606 -13.36511
  Beta  occ. eigenvalues --  -13.36470 -13.36445 -10.69438 -10.69433 -10.69431
  Beta  occ. eigenvalues --  -10.69397 -10.69393 -10.69392 -10.69374 -10.69370
  Beta  occ. eigenvalues --  -10.69363 -10.33288 -10.32297 -10.31930 -10.31135
  Beta  occ. eigenvalues --  -10.31122 -10.31072 -10.30527 -10.30451  -9.53067
  Beta  occ. eigenvalues --   -7.28918  -7.27466  -7.27461  -3.21130  -3.21095
  Beta  occ. eigenvalues --   -3.21069  -3.21043  -3.21039  -3.21021  -3.21011
  Beta  occ. eigenvalues --   -3.21008  -3.20997  -3.20877  -3.20871  -3.20838
  Beta  occ. eigenvalues --   -2.74817  -1.85354  -1.85290  -1.85280  -1.85250
  Beta  occ. eigenvalues --   -1.85144  -1.85074  -1.85059  -1.85041  -1.85024
  Beta  occ. eigenvalues --   -1.85013  -1.85002  -1.84944  -1.84394  -1.84284
  Beta  occ. eigenvalues --   -1.84269  -1.84253  -1.84219  -1.84209  -1.84152
  Beta  occ. eigenvalues --   -1.84136  -1.84110  -1.84101  -1.84072  -1.84060
  Beta  occ. eigenvalues --   -1.83965  -1.83922  -1.83884  -1.83877  -1.83863
  Beta  occ. eigenvalues --   -1.83833  -1.83810  -1.83798  -1.83789  -1.83696
  Beta  occ. eigenvalues --   -1.83684  -1.83677  -1.80698  -1.75984  -1.75879
  Beta  occ. eigenvalues --   -1.50214  -1.50175  -1.50157  -1.08615  -1.06989
  Beta  occ. eigenvalues --   -1.06944  -1.06898  -1.06019  -1.06006  -1.05982
  Beta  occ. eigenvalues --   -1.04586  -1.04576  -1.04565  -1.03995  -1.03983
  Beta  occ. eigenvalues --   -1.03664  -1.03352  -1.03309  -1.03293  -1.03031
  Beta  occ. eigenvalues --   -1.02993  -1.02254  -1.02215  -1.02210  -1.02091
  Beta  occ. eigenvalues --   -1.02007  -1.01969  -1.01906  -1.01881  -1.01770
  Beta  occ. eigenvalues --   -1.01762  -1.01742  -1.01622  -1.01581  -1.01554
  Beta  occ. eigenvalues --   -1.01305  -1.00785  -1.00754  -1.00693  -1.00686
  Beta  occ. eigenvalues --   -0.99888  -0.99834  -0.99787  -0.96416  -0.89937
  Beta  occ. eigenvalues --   -0.85660  -0.85619  -0.85609  -0.85507  -0.85488
  Beta  occ. eigenvalues --   -0.85464  -0.85462  -0.85460  -0.85417  -0.84706
  Beta  occ. eigenvalues --   -0.84360  -0.82710  -0.72183  -0.69743  -0.65319
  Beta  occ. eigenvalues --   -0.62343  -0.61733  -0.61665  -0.61640  -0.60794
  Beta  occ. eigenvalues --   -0.58979  -0.58961  -0.58939  -0.58809  -0.58800
  Beta  occ. eigenvalues --   -0.58773  -0.58754  -0.58689  -0.58563  -0.57359
  Beta  occ. eigenvalues --   -0.57214  -0.57169  -0.57013  -0.56923  -0.56514
  Beta  occ. eigenvalues --   -0.56431  -0.56389  -0.55848  -0.55636  -0.55346
  Beta  occ. eigenvalues --   -0.55337  -0.55319  -0.54661  -0.54150  -0.54126
  Beta  occ. eigenvalues --   -0.53942  -0.53690  -0.53649  -0.53619  -0.52797
  Beta  occ. eigenvalues --   -0.52660  -0.52596  -0.52485  -0.52461  -0.51464
  Beta  occ. eigenvalues --   -0.51451  -0.51442  -0.51313  -0.51242  -0.50982
  Beta  occ. eigenvalues --   -0.50562  -0.50478  -0.50465  -0.50339  -0.50250
  Beta  occ. eigenvalues --   -0.50168  -0.50031  -0.50018  -0.49956  -0.49690
  Beta  occ. eigenvalues --   -0.49623  -0.49568  -0.49494  -0.49471  -0.49281
  Beta  occ. eigenvalues --   -0.49213  -0.49199  -0.49119  -0.49086  -0.49009
  Beta  occ. eigenvalues --   -0.48701  -0.48541  -0.48523  -0.48455  -0.47815
  Beta  occ. eigenvalues --   -0.47599  -0.47569  -0.46038  -0.45907  -0.45872
  Beta  occ. eigenvalues --   -0.45819  -0.45674  -0.45570  -0.45224  -0.45164
  Beta  occ. eigenvalues --   -0.45149  -0.45051  -0.44773  -0.44578  -0.44473
  Beta  occ. eigenvalues --   -0.44422  -0.44412  -0.44278  -0.44191  -0.44163
  Beta  occ. eigenvalues --   -0.43464  -0.43203  -0.42490  -0.42455  -0.42403
  Beta  occ. eigenvalues --   -0.42288  -0.42254  -0.42146  -0.42130  -0.41626
  Beta  occ. eigenvalues --   -0.41604  -0.41573  -0.41383  -0.41039  -0.40942
  Beta  occ. eigenvalues --   -0.40752  -0.40697  -0.40667  -0.40349  -0.40336
  Beta  occ. eigenvalues --   -0.40303  -0.40154  -0.40143  -0.40131  -0.39798
  Beta  occ. eigenvalues --   -0.39615  -0.39367  -0.39167  -0.39088  -0.39081
  Beta  occ. eigenvalues --   -0.38894  -0.38840  -0.38810  -0.38752  -0.38704
  Beta  occ. eigenvalues --   -0.38652  -0.38300  -0.38264  -0.38216  -0.37721
  Beta  occ. eigenvalues --   -0.37216  -0.37172  -0.35738  -0.35694  -0.33935
  Beta  occ. eigenvalues --   -0.30888
  Beta virt. eigenvalues --   -0.06408  -0.06348  -0.04901  -0.04864  -0.04761
  Beta virt. eigenvalues --   -0.01515  -0.01411  -0.01372  -0.01159  -0.00923
  Beta virt. eigenvalues --   -0.00915  -0.00885  -0.00150  -0.00082  -0.00044

 Mulliken charges and spin densities:
               1          2
     1  Cl  -0.347143  -0.609542
     2  C   -0.035063  -0.095674
     3  C    0.012427   0.057047
     4  C   -0.034870  -0.091617
     5  C   -0.031503   0.058392
     6  C    0.007474  -0.115369
     7  C   -0.047948   0.058464
     8  H    0.051014   0.004190
     9  H    0.050856   0.003929
    10  H    0.056033  -0.002082
    11  H    0.057017   0.005068
    12  H    0.054640  -0.002057
    13  C    0.005786  -0.260005
    14  C   -0.045155  -0.019383
    15  H    0.076768   0.010729
    16  H    0.095045   0.001397
    17  H    0.087544  -0.001799
    18  O   -0.672906  -0.000568
    19  O   -0.672514  -0.000531
    20  O   -0.666740  -0.001623
    21  O   -0.673402  -0.000542
    22  W    1.719012   0.000360
    23  W    1.663773   0.000482
    24  W    1.675292   0.000169
    25  W    1.684120   0.000211
    26  W    1.664400   0.002698
    27  W    1.711936   0.002427
    28  W    1.613317   0.003353
    29  W    1.674687   0.002787
    30  O   -0.350003  -0.000530
    31  O   -0.394156  -0.000571
    32  O   -0.396353  -0.000612
    33  O   -0.388987  -0.000569
    34  O   -0.673504  -0.000280
    35  O   -0.678952  -0.000025
    36  O   -0.671051  -0.000129
    37  O   -0.673851  -0.000195
    38  O   -0.398011   0.002106
    39  O   -0.395020   0.002139
    40  O   -0.340394   0.000183
    41  O   -0.395273   0.002106
    42  O   -0.678547   0.000029
    43  O   -0.673073   0.000128
    44  O   -0.670015   0.000250
    45  O   -0.674674   0.000074
    46  O   -0.398618   0.002269
    47  O   -0.352183   0.002157
    48  O   -0.395348   0.001823
    49  O   -0.392311   0.002314
    50  W    1.661776   0.002769
    51  W    1.667333   0.002665
    52  W    1.678202   0.003903
    53  W    1.673072   0.002615
    54  O   -0.724245   0.000111
    55  O   -0.707369   0.000021
    56  O   -0.723263   0.000162
    57  O   -0.722155   0.000071
    58  O   -0.704995   0.000066
    59  O   -0.725116   0.000151
    60  O   -0.723674   0.000206
    61  O   -0.719574   0.000194
    62  O   -0.724245  -0.000186
    63  O   -0.707296  -0.000061
    64  O   -0.724626  -0.000209
    65  O   -0.725124  -0.000211
    66  O   -0.885096   0.005268
    67  O   -0.885107   0.007275
    68  O   -0.882000   0.007029
    69  O   -0.890387   0.006396
    70  K    0.849618   0.000191
    71  K    0.849623   0.000212
    72  K    0.846631   0.000214
    73  V    1.204447   0.937570
 Sum of Mulliken charges =  -1.00000   0.00000

 Dipole moment (field-independent basis, Debye):
    X=             28.1682    Y=            -13.5947    Z=            -30.6080  Tot=             43.7620
 Quadrupole moment (field-independent basis, Debye-Ang):
   XX=           -759.6871   YY=           -711.0702   ZZ=           -779.6336
   XY=            126.5162   XZ=            174.6578   YZ=            -92.0039

 Normal termination of Gaussian 16 at Sun Jun  2 19:24:19 2024.
