 Gaussian 16, Revision C.01,
 Gaussian 16:  ES64L-G16RevC.01  3-Jul-2019

 ----------------------------------------------------------------------
 # def2svp wb97xd scrf=(smd,solvent=acetonitrile) g09default scf=(xqc,m
 axcycle=64) force guess=read nosymm
 ----------------------------------------------------------------------

 ----------
 Title Card
 ----------
 Symbolic Z-matrix:
 Charge = -1 Multiplicity = 1

                          Input orientation:
 ---------------------------------------------------------------------
 Center     Atomic      Atomic             Coordinates (Angstroms)
 Number     Number       Type             X           Y           Z
 ---------------------------------------------------------------------
      1         17           0       -9.644563    8.272132   10.543253
      2          6           0       -8.346544    4.252350   12.213269
      3          6           0       -9.141519    3.932310   11.096546
      4          6           0      -10.054556    2.868018   11.215550
      5          6           0      -10.206205    2.182478   12.416084
      6          6           0       -9.435160    2.535097   13.524728
      7          6           0       -8.494054    3.561175   13.412355
      8          1           0       -7.601957    5.048715   12.144117
      9          1           0      -10.659667    2.589621   10.348188
     10          1           0      -10.927890    1.365189   12.487243
     11          1           0       -9.555556    2.001308   14.469950
     12          1           0       -7.870856    3.825506   14.270441
     13          6           0       -9.082048    4.674048    9.836025
     14          6           0       -8.417565    5.828362    9.618804
     15          1           0       -9.666158    4.243649    9.014793
     16          1           0       -8.434983    6.299527    8.634893
     17          1           0       -7.792532    6.302598   10.374836
     18          8           0       -0.975162   -1.803350    7.465036
     19          8           0       -8.387877   -1.332203    7.461984
     20          8           0       -7.018445    1.346392   10.474002
     21          8           0       -2.334572   -4.398228   10.555051
     22         74           0       -3.398925    0.691974    6.479283
     23         74           0       -5.988747   -3.821642    6.558367
     24         74           0       -3.608189    0.869183   11.415146
     25         74           0       -5.761615   -3.866981   11.482483
     26         74           0       -2.430059   -2.591942    6.401356
     27         74           0       -6.934588   -0.535230    6.368811
     28         74           0       -6.813321   -0.251517   11.562633
     29         74           0       -2.543950   -2.740479   11.604056
     30          8           0       -3.164233    1.874533    5.298022
     31          8           0       -6.122489   -5.072152    5.416337
     32          8           0       -2.679457    1.708767   12.564678
     33          8           0       -6.681064   -4.667886   12.664637
     34          8           0       -2.658880   -0.916998    5.588918
     35          8           0       -6.699502   -2.269528    5.620287
     36          8           0       -5.303398    0.549328   12.358945
     37          8           0       -4.049931   -3.535290   12.408189
     38          8           0        0.316227   -0.022000    9.277687
     39          8           0       -9.690441   -3.041487    9.324755
     40          8           0       -6.345452    3.428678    8.664789
     41          8           0       -3.010572   -6.495153    8.743865
     42          8           0       -1.776681    0.743616    7.473055
     43          8           0       -7.596825   -3.883191    7.541162
     44          8           0       -4.488275    2.194818   10.425564
     45          8           0       -4.872618   -5.234597   10.530326
     46          8           0       -1.600667   -3.532581    5.253095
     47          8           0       -7.811003    0.275909    5.175404
     48          8           0       -8.034180   -0.164726   12.740364
     49          8           0       -1.309255   -2.861483   12.764936
     50         74           0       -1.242785   -0.538597    8.838518
     51         74           0       -8.130625   -2.539019    8.873735
     52         74           0       -5.870231    1.856742    9.043388
     53         74           0       -3.494488   -4.920759    9.163632
     54          8           0       -4.211680   -3.114873    6.073368
     55          8           0       -5.147255   -0.063041    6.018388
     56          8           0       -6.166694   -2.000571   11.909905
     57          8           0       -3.171262   -0.992215   11.917699
     58          8           0       -4.349011    1.579019    7.834442
     59          8           0       -5.008547   -4.684771    7.924693
     60          8           0       -2.317504    0.562551   10.076214
     61          8           0       -7.043887   -3.615896   10.130192
     62          8           0       -2.570463   -3.910482    7.868425
     63          8           0       -6.805561    0.793244    7.802606
     64          8           0       -7.820680   -1.178198   10.140999
     65          8           0       -1.552939   -1.875294   10.140105
     66          8           0       -3.352734   -1.161182    8.012176
     67          8           0       -6.013882   -1.962099    8.033818
     68          8           0       -5.111589   -0.211198    9.942459
     69          8           0       -4.236562   -2.850359    9.975854
     70         19           0       -3.213773   -6.133439    5.647514
     71         19           0       -0.116514    0.042003   12.327910
     72         19           0       -9.283399   -2.823558   12.425770
     73         23           0       -4.680757   -1.543054    8.989769
 ---------------------------------------------------------------------

 SCF Done:  E(RwB97XD) =  -7327.70184891     A.U. after   12 cycles

 Alpha  occ. eigenvalues -- -197.29463-130.00089-130.00080-129.99981-101.48352
 Alpha  occ. eigenvalues --  -22.62585 -19.33634 -19.33627 -19.33625 -19.33601
 Alpha  occ. eigenvalues --  -19.30728 -19.30689 -19.30687 -19.30683 -19.30675
 Alpha  occ. eigenvalues --  -19.30670 -19.30664 -19.30635 -19.30562 -19.30369
 Alpha  occ. eigenvalues --  -19.30346 -19.30180 -19.29319 -19.29313 -19.29298
 Alpha  occ. eigenvalues --  -19.29277 -19.29267 -19.29259 -19.29227 -19.29204
 Alpha  occ. eigenvalues --  -19.29201 -19.29173 -19.29172 -19.29147 -19.29132
 Alpha  occ. eigenvalues --  -19.29099 -19.29091 -19.29089 -19.29086 -19.29060
 Alpha  occ. eigenvalues --  -19.29056 -19.29010 -19.28988 -19.28966 -19.28939
 Alpha  occ. eigenvalues --  -19.28859 -19.11541 -19.11534 -19.11525 -13.37492
 Alpha  occ. eigenvalues --  -13.37484 -13.37378 -10.70422 -10.70415 -10.70414
 Alpha  occ. eigenvalues --  -10.70414 -10.70407 -10.70405 -10.70309 -10.70302
 Alpha  occ. eigenvalues --  -10.70297 -10.29841 -10.29340 -10.29281 -10.29052
 Alpha  occ. eigenvalues --  -10.28962 -10.28948 -10.28073 -10.27492  -9.38828
 Alpha  occ. eigenvalues --   -7.13654  -7.13606  -7.13597  -3.23323  -3.23319
 Alpha  occ. eigenvalues --   -3.23306  -3.23299  -3.23293  -3.23278  -3.23263
 Alpha  occ. eigenvalues --   -3.23259  -3.23229  -3.22980  -3.22965  -3.22786
 Alpha  occ. eigenvalues --   -2.91821  -1.94202  -1.94168  -1.94156  -1.87722
 Alpha  occ. eigenvalues --   -1.87678  -1.87662  -1.87634  -1.87491  -1.87473
 Alpha  occ. eigenvalues --   -1.87469  -1.87453  -1.87430  -1.87280  -1.87250
 Alpha  occ. eigenvalues --   -1.87100  -1.86630  -1.86512  -1.86502  -1.86486
 Alpha  occ. eigenvalues --   -1.86460  -1.86438  -1.86346  -1.86336  -1.86319
 Alpha  occ. eigenvalues --   -1.86300  -1.86294  -1.86265  -1.86150  -1.86138
 Alpha  occ. eigenvalues --   -1.86126  -1.86117  -1.86046  -1.86031  -1.85992
 Alpha  occ. eigenvalues --   -1.85924  -1.85908  -1.85808  -1.85718  -1.85670
 Alpha  occ. eigenvalues --   -1.51183  -1.51173  -1.51076  -1.13064  -1.11294
 Alpha  occ. eigenvalues --   -1.11210  -1.11206  -1.08968  -1.08532  -1.08492
 Alpha  occ. eigenvalues --   -1.08322  -1.07569  -1.07509  -1.07498  -1.06902
 Alpha  occ. eigenvalues --   -1.06894  -1.06874  -1.06329  -1.06309  -1.05319
 Alpha  occ. eigenvalues --   -1.05310  -1.04983  -1.04979  -1.04969  -1.04194
 Alpha  occ. eigenvalues --   -1.04184  -1.04173  -1.04030  -1.04010  -1.03999
 Alpha  occ. eigenvalues --   -1.03942  -1.03919  -1.03898  -1.03765  -1.03741
 Alpha  occ. eigenvalues --   -1.03619  -1.03555  -1.03304  -1.03265  -1.03120
 Alpha  occ. eigenvalues --   -1.03108  -1.03029  -1.02966  -0.94361  -0.86652
 Alpha  occ. eigenvalues --   -0.86645  -0.86553  -0.86483  -0.86458  -0.86457
 Alpha  occ. eigenvalues --   -0.86453  -0.86437  -0.86365  -0.86328  -0.82801
 Alpha  occ. eigenvalues --   -0.79737  -0.71609  -0.69654  -0.67996  -0.64619
 Alpha  occ. eigenvalues --   -0.63995  -0.63915  -0.63903  -0.63322  -0.63303
 Alpha  occ. eigenvalues --   -0.63178  -0.62921  -0.62685  -0.62606  -0.62003
 Alpha  occ. eigenvalues --   -0.61627  -0.61614  -0.61518  -0.61259  -0.61249
 Alpha  occ. eigenvalues --   -0.61181  -0.60419  -0.59488  -0.59468  -0.59455
 Alpha  occ. eigenvalues --   -0.59418  -0.59370  -0.58567  -0.58005  -0.57976
 Alpha  occ. eigenvalues --   -0.57886  -0.57073  -0.57037  -0.57008  -0.56296
 Alpha  occ. eigenvalues --   -0.56277  -0.56123  -0.55704  -0.54862  -0.54812
 Alpha  occ. eigenvalues --   -0.54771  -0.54515  -0.54244  -0.54112  -0.54100
 Alpha  occ. eigenvalues --   -0.54021  -0.53963  -0.53240  -0.53204  -0.53074
 Alpha  occ. eigenvalues --   -0.53040  -0.52905  -0.52709  -0.52674  -0.52642
 Alpha  occ. eigenvalues --   -0.52607  -0.52511  -0.52470  -0.52426  -0.51614
 Alpha  occ. eigenvalues --   -0.51595  -0.51327  -0.51309  -0.51265  -0.51226
 Alpha  occ. eigenvalues --   -0.51172  -0.51163  -0.50928  -0.50769  -0.50593
 Alpha  occ. eigenvalues --   -0.50575  -0.50569  -0.49876  -0.49872  -0.49299
 Alpha  occ. eigenvalues --   -0.49276  -0.49245  -0.49215  -0.49164  -0.49078
 Alpha  occ. eigenvalues --   -0.48898  -0.48078  -0.48029  -0.47924  -0.47670
 Alpha  occ. eigenvalues --   -0.47388  -0.47291  -0.47249  -0.46997  -0.46935
 Alpha  occ. eigenvalues --   -0.46815  -0.46550  -0.46494  -0.46485  -0.46190
 Alpha  occ. eigenvalues --   -0.46141  -0.46105  -0.45588  -0.45103  -0.44920
 Alpha  occ. eigenvalues --   -0.44878  -0.44214  -0.44144  -0.44034  -0.43499
 Alpha  occ. eigenvalues --   -0.43283  -0.43231  -0.43117  -0.43103  -0.43071
 Alpha  occ. eigenvalues --   -0.42705  -0.42683  -0.42659  -0.42591  -0.42581
 Alpha  occ. eigenvalues --   -0.42499  -0.42467  -0.42445  -0.42289  -0.42272
 Alpha  occ. eigenvalues --   -0.42256  -0.42027  -0.41916  -0.41861  -0.41842
 Alpha  occ. eigenvalues --   -0.41165  -0.41163  -0.41128  -0.41020  -0.40547
 Alpha  occ. eigenvalues --   -0.40521  -0.40503  -0.40377  -0.39443  -0.39434
 Alpha  occ. eigenvalues --   -0.36975  -0.32542  -0.29174  -0.25133  -0.25107
 Alpha  occ. eigenvalues --   -0.23545
 Alpha virt. eigenvalues --   -0.09475  -0.09255  -0.08531  -0.08470  -0.07051
 Alpha virt. eigenvalues --   -0.07027  -0.06940  -0.04483  -0.04165  -0.04121
 Alpha virt. eigenvalues --   -0.03719  -0.03493  -0.03446  -0.03245  -0.03145

 Mulliken charges:
               1
     1  Cl  -0.893867
     2  C   -0.080090
     3  C    0.048839
     4  C   -0.079282
     5  C   -0.033750
     6  C   -0.033908
     7  C   -0.049772
     8  H    0.030317
     9  H    0.029242
    10  H    0.041055
    11  H    0.036867
    12  H    0.039916
    13  C   -0.123980
    14  C    0.023559
    15  H    0.021027
    16  H    0.036629
    17  H    0.024518
    18  O   -0.663909
    19  O   -0.663578
    20  O   -0.655401
    21  O   -0.664320
    22  W    1.735441
    23  W    1.677910
    24  W    1.687921
    25  W    1.698157
    26  W    1.677965
    27  W    1.729507
    28  W    1.621021
    29  W    1.688970
    30  O   -0.320163
    31  O   -0.365778
    32  O   -0.367877
    33  O   -0.360237
    34  O   -0.665033
    35  O   -0.671390
    36  O   -0.661840
    37  O   -0.664761
    38  O   -0.368119
    39  O   -0.364949
    40  O   -0.297395
    41  O   -0.365164
    42  O   -0.670779
    43  O   -0.664345
    44  O   -0.661339
    45  O   -0.666122
    46  O   -0.368503
    47  O   -0.320467
    48  O   -0.362079
    49  O   -0.362194
    50  W    1.675581
    51  W    1.681698
    52  W    1.685132
    53  W    1.687621
    54  O   -0.726412
    55  O   -0.709154
    56  O   -0.726621
    57  O   -0.724237
    58  O   -0.707005
    59  O   -0.727861
    60  O   -0.726275
    61  O   -0.721934
    62  O   -0.725793
    63  O   -0.708402
    64  O   -0.725712
    65  O   -0.727062
    66  O   -0.802614
    67  O   -0.801809
    68  O   -0.798848
    69  O   -0.810547
    70  K    0.863332
    71  K    0.862951
    72  K    0.860453
    73  V    1.195051
 Sum of Mulliken charges =  -1.00000

 Dipole moment (field-independent basis, Debye):
    X=             50.2559    Y=            -51.1403    Z=            -38.7529  Tot=             81.5032
 Quadrupole moment (field-independent basis, Debye-Ang):
   XX=          -1040.9325   YY=           -889.2248   ZZ=           -915.5262
   XY=            446.6162   XZ=            449.7276   YZ=           -476.9923

 Normal termination of Gaussian 16 at Sun Jun  2 20:08:16 2024.
