 Gaussian 16, Revision C.01,
 Gaussian 16:  ES64L-G16RevC.01  3-Jul-2019

 ----------------------------------------------------------------------
 # def2svp wb97xd scrf=(smd,solvent=acetonitrile) g09default scf=(xqc,m
 axcycle=64) force guess=read nosymm
 ----------------------------------------------------------------------

 ----------
 Title Card
 ----------
 Symbolic Z-matrix:
 Charge = -1 Multiplicity = 1

                          Input orientation:
 ---------------------------------------------------------------------
 Center     Atomic      Atomic             Coordinates (Angstroms)
 Number     Number       Type             X           Y           Z
 ---------------------------------------------------------------------
      1         17           0       -9.644563    8.272132   10.543253
      2          6           0       -8.346544    4.252350   12.213269
      3          6           0       -9.141519    3.932310   11.096546
      4          6           0      -10.054556    2.868018   11.215550
      5          6           0      -10.206205    2.182478   12.416084
      6          6           0       -9.435160    2.535097   13.524728
      7          6           0       -8.494054    3.561175   13.412355
      8          1           0       -7.601957    5.048715   12.144117
      9          1           0      -10.659667    2.589621   10.348188
     10          1           0      -10.927890    1.365189   12.487243
     11          1           0       -9.555556    2.001308   14.469950
     12          1           0       -7.870856    3.825506   14.270441
     13          6           0       -9.082048    4.674048    9.836025
     14          6           0       -8.417565    5.828362    9.618804
     15          1           0       -9.666158    4.243649    9.014793
     16          1           0       -8.434983    6.299527    8.634893
     17          1           0       -7.792532    6.302598   10.374836
     18          8           0       -0.975162   -1.803350    7.465036
     19          8           0       -8.387877   -1.332203    7.461984
     20          8           0       -7.018445    1.346392   10.474002
     21          8           0       -2.334572   -4.398228   10.555051
     22         74           0       -3.398925    0.691974    6.479283
     23         74           0       -5.988747   -3.821642    6.558367
     24         74           0       -3.608189    0.869183   11.415146
     25         74           0       -5.761615   -3.866981   11.482483
     26         74           0       -2.430059   -2.591942    6.401356
     27         74           0       -6.934588   -0.535230    6.368811
     28         74           0       -6.813321   -0.251517   11.562633
     29         74           0       -2.543950   -2.740479   11.604056
     30          8           0       -3.164233    1.874533    5.298022
     31          8           0       -6.122489   -5.072152    5.416337
     32          8           0       -2.679457    1.708767   12.564678
     33          8           0       -6.681064   -4.667886   12.664637
     34          8           0       -2.658880   -0.916998    5.588918
     35          8           0       -6.699502   -2.269528    5.620287
     36          8           0       -5.303398    0.549328   12.358945
     37          8           0       -4.049931   -3.535290   12.408189
     38          8           0        0.316227   -0.022000    9.277687
     39          8           0       -9.690441   -3.041487    9.324755
     40          8           0       -6.345452    3.428678    8.664789
     41          8           0       -3.010572   -6.495153    8.743865
     42          8           0       -1.776681    0.743616    7.473055
     43          8           0       -7.596825   -3.883191    7.541162
     44          8           0       -4.488275    2.194818   10.425564
     45          8           0       -4.872618   -5.234597   10.530326
     46          8           0       -1.600667   -3.532581    5.253095
     47          8           0       -7.811003    0.275909    5.175404
     48          8           0       -8.034180   -0.164726   12.740364
     49          8           0       -1.309255   -2.861483   12.764936
     50         74           0       -1.242785   -0.538597    8.838518
     51         74           0       -8.130625   -2.539019    8.873735
     52         74           0       -5.870231    1.856742    9.043388
     53         74           0       -3.494488   -4.920759    9.163632
     54          8           0       -4.211680   -3.114873    6.073368
     55          8           0       -5.147255   -0.063041    6.018388
     56          8           0       -6.166694   -2.000571   11.909905
     57          8           0       -3.171262   -0.992215   11.917699
     58          8           0       -4.349011    1.579019    7.834442
     59          8           0       -5.008547   -4.684771    7.924693
     60          8           0       -2.317504    0.562551   10.076214
     61          8           0       -7.043887   -3.615896   10.130192
     62          8           0       -2.570463   -3.910482    7.868425
     63          8           0       -6.805561    0.793244    7.802606
     64          8           0       -7.820680   -1.178198   10.140999
     65          8           0       -1.552939   -1.875294   10.140105
     66          8           0       -3.352734   -1.161182    8.012176
     67          8           0       -6.013882   -1.962099    8.033818
     68          8           0       -5.111589   -0.211198    9.942459
     69          8           0       -4.236562   -2.850359    9.975854
     70         19           0       -3.213773   -6.133439    5.647514
     71         19           0       -0.116514    0.042003   12.327910
     72         19           0       -9.283399   -2.823558   12.425770
     73         23           0       -4.680757   -1.543054    8.989769
 ---------------------------------------------------------------------

 SCF Done:  E(UwB97XD) =  -7327.70185366     A.U. after   32 cycles

 Alpha  occ. eigenvalues --  -19.24685 -18.94180 -18.93088 -18.93059 -13.36505
 Alpha  occ. eigenvalues --  -13.36472 -13.36446 -10.69432 -10.69428 -10.69426
 Alpha  occ. eigenvalues --  -10.69399 -10.69395 -10.69394 -10.69375 -10.69371
 Alpha  occ. eigenvalues --  -10.69365 -10.33016 -10.32188 -10.31982 -10.31035
 Alpha  occ. eigenvalues --  -10.31003 -10.30975 -10.30588 -10.30513  -9.52592
 Alpha  occ. eigenvalues --   -7.27475  -7.27133  -7.27128  -3.21129  -3.21102
 Alpha  occ. eigenvalues --   -3.21070  -3.21049  -3.21039  -3.21027  -3.21016
 Alpha  occ. eigenvalues --   -3.21014  -3.21003  -3.20876  -3.20873  -3.20843
 Alpha  occ. eigenvalues --   -2.78869  -1.85360  -1.85295  -1.85285  -1.85258
 Alpha  occ. eigenvalues --   -1.85151  -1.85080  -1.85063  -1.85047  -1.85034
 Alpha  occ. eigenvalues --   -1.85022  -1.85007  -1.84953  -1.84397  -1.84286
 Alpha  occ. eigenvalues --   -1.84272  -1.84256  -1.84222  -1.84212  -1.84155
 Alpha  occ. eigenvalues --   -1.84139  -1.84113  -1.84104  -1.84075  -1.84063
 Alpha  occ. eigenvalues --   -1.83967  -1.83925  -1.83887  -1.83880  -1.83866
 Alpha  occ. eigenvalues --   -1.83835  -1.83812  -1.83800  -1.83793  -1.83697
 Alpha  occ. eigenvalues --   -1.83686  -1.83679  -1.82024  -1.81681  -1.81665
 Alpha  occ. eigenvalues --   -1.50209  -1.50178  -1.50158  -1.08632  -1.07009
 Alpha  occ. eigenvalues --   -1.06966  -1.06925  -1.06021  -1.06008  -1.05983
 Alpha  occ. eigenvalues --   -1.04585  -1.04576  -1.04567  -1.03993  -1.03984
 Alpha  occ. eigenvalues --   -1.03728  -1.03382  -1.03347  -1.03326  -1.03032
 Alpha  occ. eigenvalues --   -1.03002  -1.02273  -1.02239  -1.02230  -1.02102
 Alpha  occ. eigenvalues --   -1.02012  -1.01983  -1.01912  -1.01896  -1.01776
 Alpha  occ. eigenvalues --   -1.01765  -1.01746  -1.01626  -1.01582  -1.01571
 Alpha  occ. eigenvalues --   -1.01306  -1.00824  -1.00757  -1.00695  -1.00688
 Alpha  occ. eigenvalues --   -1.00020  -0.99967  -0.99902  -0.96195  -0.89280
 Alpha  occ. eigenvalues --   -0.85656  -0.85622  -0.85611  -0.85502  -0.85484
 Alpha  occ. eigenvalues --   -0.85466  -0.85463  -0.85463  -0.85419  -0.84278
 Alpha  occ. eigenvalues --   -0.82503  -0.81058  -0.71930  -0.69625  -0.65073
 Alpha  occ. eigenvalues --   -0.62344  -0.61734  -0.61665  -0.61640  -0.60589
 Alpha  occ. eigenvalues --   -0.58983  -0.58963  -0.58942  -0.58889  -0.58820
 Alpha  occ. eigenvalues --   -0.58808  -0.58782  -0.58742  -0.58563  -0.57397
 Alpha  occ. eigenvalues --   -0.57355  -0.57335  -0.57042  -0.56767  -0.56511
 Alpha  occ. eigenvalues --   -0.56463  -0.56424  -0.56039  -0.55891  -0.55367
 Alpha  occ. eigenvalues --   -0.55357  -0.55319  -0.54452  -0.54159  -0.54136
 Alpha  occ. eigenvalues --   -0.53955  -0.53724  -0.53675  -0.53662  -0.52738
 Alpha  occ. eigenvalues --   -0.52652  -0.52609  -0.52505  -0.52466  -0.51487
 Alpha  occ. eigenvalues --   -0.51478  -0.51455  -0.51371  -0.51317  -0.50789
 Alpha  occ. eigenvalues --   -0.50571  -0.50533  -0.50488  -0.50406  -0.50337
 Alpha  occ. eigenvalues --   -0.50286  -0.50062  -0.50024  -0.49994  -0.49744
 Alpha  occ. eigenvalues --   -0.49650  -0.49607  -0.49506  -0.49485  -0.49281
 Alpha  occ. eigenvalues --   -0.49234  -0.49201  -0.49144  -0.49099  -0.49027
 Alpha  occ. eigenvalues --   -0.48709  -0.48549  -0.48526  -0.48462  -0.47656
 Alpha  occ. eigenvalues --   -0.47635  -0.47152  -0.46481  -0.46047  -0.46027
 Alpha  occ. eigenvalues --   -0.45886  -0.45846  -0.45755  -0.45626  -0.45225
 Alpha  occ. eigenvalues --   -0.45148  -0.45144  -0.44777  -0.44581  -0.44490
 Alpha  occ. eigenvalues --   -0.44474  -0.44439  -0.44299  -0.44214  -0.44182
 Alpha  occ. eigenvalues --   -0.43468  -0.43105  -0.42546  -0.42513  -0.42434
 Alpha  occ. eigenvalues --   -0.42333  -0.42205  -0.42177  -0.42167  -0.41640
 Alpha  occ. eigenvalues --   -0.41623  -0.41594  -0.41034  -0.40986  -0.40772
 Alpha  occ. eigenvalues --   -0.40759  -0.40731  -0.40366  -0.40349  -0.40320
 Alpha  occ. eigenvalues --   -0.40202  -0.40168  -0.40158  -0.40119  -0.39857
 Alpha  occ. eigenvalues --   -0.39368  -0.39261  -0.39232  -0.39127  -0.39058
 Alpha  occ. eigenvalues --   -0.38903  -0.38872  -0.38804  -0.38765  -0.38697
 Alpha  occ. eigenvalues --   -0.38305  -0.38270  -0.38222  -0.38034  -0.37214
 Alpha  occ. eigenvalues --   -0.37180  -0.34780  -0.34742  -0.33658  -0.30390
 Alpha  occ. eigenvalues --   -0.25849
 Alpha virt. eigenvalues --   -0.12101  -0.06406  -0.06344  -0.04897  -0.04861
 Alpha virt. eigenvalues --   -0.04760  -0.01518  -0.01415  -0.01377  -0.01163
 Alpha virt. eigenvalues --   -0.00927  -0.00921  -0.00888  -0.00161  -0.00093

  Beta  occ. eigenvalues -- -197.10925-129.99095-129.99062-129.99044-101.62583
  Beta  occ. eigenvalues --  -22.43340 -19.28542 -19.28509 -19.28451 -19.28422
  Beta  occ. eigenvalues --  -19.28394 -19.28374 -19.28357 -19.28353 -19.28347
  Beta  occ. eigenvalues --  -19.28275 -19.28259 -19.28165 -19.26946 -19.26920
  Beta  occ. eigenvalues --  -19.26913 -19.26860 -19.26848 -19.26834 -19.26833
  Beta  occ. eigenvalues --  -19.26830 -19.26817 -19.26809 -19.26807 -19.26790
  Beta  occ. eigenvalues --  -19.26781 -19.26773 -19.26764 -19.26762 -19.26759
  Beta  occ. eigenvalues --  -19.26755 -19.26746 -19.26732 -19.26720 -19.26717
  Beta  occ. eigenvalues --  -19.26652 -19.26614 -19.24748 -19.24716 -19.24685
  Beta  occ. eigenvalues --  -19.24659 -18.93835 -18.91638 -18.91583 -13.36505
  Beta  occ. eigenvalues --  -13.36472 -13.36446 -10.69432 -10.69428 -10.69426
  Beta  occ. eigenvalues --  -10.69399 -10.69395 -10.69394 -10.69375 -10.69371
  Beta  occ. eigenvalues --  -10.69365 -10.33295 -10.32304 -10.31932 -10.31139
  Beta  occ. eigenvalues --  -10.31126 -10.31075 -10.30529 -10.30454  -9.53042
  Beta  occ. eigenvalues --   -7.28890  -7.27441  -7.27436  -3.21129  -3.21095
  Beta  occ. eigenvalues --   -3.21069  -3.21043  -3.21038  -3.21021  -3.21010
  Beta  occ. eigenvalues --   -3.21008  -3.20997  -3.20875  -3.20870  -3.20838
  Beta  occ. eigenvalues --   -2.74804  -1.85355  -1.85290  -1.85280  -1.85250
  Beta  occ. eigenvalues --   -1.85145  -1.85074  -1.85059  -1.85041  -1.85025
  Beta  occ. eigenvalues --   -1.85013  -1.85002  -1.84944  -1.84394  -1.84284
  Beta  occ. eigenvalues --   -1.84269  -1.84253  -1.84219  -1.84209  -1.84152
  Beta  occ. eigenvalues --   -1.84137  -1.84109  -1.84101  -1.84072  -1.84060
  Beta  occ. eigenvalues --   -1.83964  -1.83922  -1.83884  -1.83877  -1.83863
  Beta  occ. eigenvalues --   -1.83832  -1.83809  -1.83798  -1.83789  -1.83695
  Beta  occ. eigenvalues --   -1.83683  -1.83676  -1.80686  -1.75981  -1.75859
  Beta  occ. eigenvalues --   -1.50209  -1.50178  -1.50158  -1.08615  -1.06989
  Beta  occ. eigenvalues --   -1.06944  -1.06899  -1.06020  -1.06006  -1.05982
  Beta  occ. eigenvalues --   -1.04586  -1.04577  -1.04565  -1.03995  -1.03983
  Beta  occ. eigenvalues --   -1.03662  -1.03351  -1.03308  -1.03292  -1.03031
  Beta  occ. eigenvalues --   -1.02995  -1.02255  -1.02216  -1.02211  -1.02093
  Beta  occ. eigenvalues --   -1.02007  -1.01970  -1.01906  -1.01882  -1.01771
  Beta  occ. eigenvalues --   -1.01763  -1.01744  -1.01623  -1.01580  -1.01555
  Beta  occ. eigenvalues --   -1.01306  -1.00785  -1.00755  -1.00695  -1.00688
  Beta  occ. eigenvalues --   -0.99885  -0.99830  -0.99783  -0.96423  -0.89949
  Beta  occ. eigenvalues --   -0.85656  -0.85622  -0.85611  -0.85502  -0.85484
  Beta  occ. eigenvalues --   -0.85466  -0.85463  -0.85463  -0.85419  -0.84690
  Beta  occ. eigenvalues --   -0.84363  -0.82710  -0.72188  -0.69747  -0.65324
  Beta  occ. eigenvalues --   -0.62343  -0.61733  -0.61665  -0.61640  -0.60802
  Beta  occ. eigenvalues --   -0.58979  -0.58962  -0.58940  -0.58809  -0.58800
  Beta  occ. eigenvalues --   -0.58773  -0.58754  -0.58690  -0.58563  -0.57358
  Beta  occ. eigenvalues --   -0.57213  -0.57167  -0.57016  -0.56927  -0.56513
  Beta  occ. eigenvalues --   -0.56431  -0.56388  -0.55847  -0.55635  -0.55347
  Beta  occ. eigenvalues --   -0.55338  -0.55320  -0.54662  -0.54152  -0.54127
  Beta  occ. eigenvalues --   -0.53945  -0.53689  -0.53648  -0.53618  -0.52802
  Beta  occ. eigenvalues --   -0.52661  -0.52596  -0.52486  -0.52461  -0.51465
  Beta  occ. eigenvalues --   -0.51453  -0.51443  -0.51316  -0.51245  -0.50988
  Beta  occ. eigenvalues --   -0.50565  -0.50478  -0.50466  -0.50340  -0.50249
  Beta  occ. eigenvalues --   -0.50169  -0.50033  -0.50020  -0.49959  -0.49692
  Beta  occ. eigenvalues --   -0.49625  -0.49571  -0.49495  -0.49473  -0.49280
  Beta  occ. eigenvalues --   -0.49213  -0.49198  -0.49118  -0.49086  -0.49007
  Beta  occ. eigenvalues --   -0.48703  -0.48544  -0.48526  -0.48455  -0.47821
  Beta  occ. eigenvalues --   -0.47602  -0.47571  -0.46044  -0.45907  -0.45872
  Beta  occ. eigenvalues --   -0.45818  -0.45674  -0.45571  -0.45225  -0.45165
  Beta  occ. eigenvalues --   -0.45150  -0.45052  -0.44776  -0.44579  -0.44473
  Beta  occ. eigenvalues --   -0.44422  -0.44413  -0.44278  -0.44192  -0.44165
  Beta  occ. eigenvalues --   -0.43462  -0.43210  -0.42491  -0.42455  -0.42405
  Beta  occ. eigenvalues --   -0.42291  -0.42254  -0.42145  -0.42130  -0.41627
  Beta  occ. eigenvalues --   -0.41605  -0.41573  -0.41388  -0.41040  -0.40944
  Beta  occ. eigenvalues --   -0.40753  -0.40699  -0.40669  -0.40352  -0.40339
  Beta  occ. eigenvalues --   -0.40305  -0.40156  -0.40145  -0.40133  -0.39800
  Beta  occ. eigenvalues --   -0.39616  -0.39367  -0.39167  -0.39087  -0.39081
  Beta  occ. eigenvalues --   -0.38895  -0.38842  -0.38810  -0.38750  -0.38703
  Beta  occ. eigenvalues --   -0.38651  -0.38301  -0.38266  -0.38218  -0.37703
  Beta  occ. eigenvalues --   -0.37216  -0.37174  -0.35719  -0.35675  -0.33941
  Beta  occ. eigenvalues --   -0.30886
  Beta virt. eigenvalues --   -0.06404  -0.06344  -0.04896  -0.04860  -0.04760
  Beta virt. eigenvalues --   -0.01514  -0.01410  -0.01372  -0.01157  -0.00922
  Beta virt. eigenvalues --   -0.00916  -0.00884  -0.00150  -0.00081  -0.00043

 Mulliken charges and spin densities:
               1          2
     1  Cl  -0.348120  -0.608116
     2  C   -0.035073  -0.096128
     3  C    0.012391   0.057435
     4  C   -0.034862  -0.092048
     5  C   -0.031495   0.058663
     6  C    0.007600  -0.115867
     7  C   -0.047896   0.058739
     8  H    0.051014   0.004204
     9  H    0.050862   0.003947
    10  H    0.056051  -0.002093
    11  H    0.057060   0.005089
    12  H    0.054651  -0.002066
    13  C    0.006010  -0.261482
    14  C   -0.044814  -0.018860
    15  H    0.076848   0.010776
    16  H    0.095014   0.001344
    17  H    0.087699  -0.001863
    18  O   -0.672887  -0.000568
    19  O   -0.672410  -0.000531
    20  O   -0.666719  -0.001620
    21  O   -0.673380  -0.000542
    22  W    1.718740   0.000359
    23  W    1.663620   0.000482
    24  W    1.675189   0.000169
    25  W    1.684019   0.000213
    26  W    1.664316   0.002699
    27  W    1.711745   0.002429
    28  W    1.613057   0.003351
    29  W    1.674547   0.002786
    30  O   -0.350062  -0.000530
    31  O   -0.394157  -0.000572
    32  O   -0.396305  -0.000613
    33  O   -0.388985  -0.000570
    34  O   -0.673353  -0.000279
    35  O   -0.678880  -0.000022
    36  O   -0.670993  -0.000127
    37  O   -0.673740  -0.000192
    38  O   -0.397939   0.002109
    39  O   -0.395090   0.002144
    40  O   -0.340357   0.000194
    41  O   -0.395226   0.002111
    42  O   -0.678490   0.000029
    43  O   -0.673045   0.000129
    44  O   -0.669878   0.000251
    45  O   -0.674623   0.000075
    46  O   -0.398404   0.002267
    47  O   -0.352158   0.002153
    48  O   -0.395239   0.001818
    49  O   -0.392353   0.002310
    50  W    1.661514   0.002776
    51  W    1.667208   0.002673
    52  W    1.678109   0.003914
    53  W    1.672908   0.002623
    54  O   -0.724281   0.000111
    55  O   -0.707262   0.000020
    56  O   -0.723220   0.000161
    57  O   -0.722131   0.000072
    58  O   -0.704846   0.000067
    59  O   -0.725028   0.000152
    60  O   -0.723700   0.000207
    61  O   -0.719491   0.000195
    62  O   -0.724221  -0.000186
    63  O   -0.707182  -0.000061
    64  O   -0.724723  -0.000208
    65  O   -0.725081  -0.000210
    66  O   -0.884991   0.005285
    67  O   -0.885035   0.007285
    68  O   -0.881967   0.007054
    69  O   -0.890411   0.006407
    70  K    0.849672   0.000191
    71  K    0.849495   0.000213
    72  K    0.846659   0.000214
    73  V    1.204506   0.937453
 Sum of Mulliken charges =  -1.00000   0.00000

 Dipole moment (field-independent basis, Debye):
    X=             28.1469    Y=            -13.6034    Z=            -30.6235  Tot=             43.7619
 Quadrupole moment (field-independent basis, Debye-Ang):
   XX=           -759.4609   YY=           -711.1949   ZZ=           -779.9757
   XY=            126.4752   XZ=            174.4874   YZ=            -92.0514

 Normal termination of Gaussian 16 at Sun Jun  2 19:57:30 2024.
