 Gaussian 16, Revision C.01,
 Gaussian 16:  ES64L-G16RevC.01  3-Jul-2019

 ----------------------------------------------------------------------
 # def2svp wb97xd scrf=(smd,solvent=acetonitrile) g09default scf=(xqc,m
 axcycle=64) force guess=read nosymm
 ----------------------------------------------------------------------

 ----------
 Title Card
 ----------
 Symbolic Z-matrix:
 Charge = -1 Multiplicity = 1

                          Input orientation:
 ---------------------------------------------------------------------
 Center     Atomic      Atomic             Coordinates (Angstroms)
 Number     Number       Type             X           Y           Z
 ---------------------------------------------------------------------
      1         17           0       -9.643061    8.271152   10.542204
      2          6           0       -8.347653    4.253541   12.212727
      3          6           0       -9.142487    3.932765   11.096125
      4          6           0      -10.055812    2.868851   11.215697
      5          6           0      -10.206416    2.182938   12.416168
      6          6           0       -9.433949    2.534844   13.524088
      7          6           0       -8.493976    3.561950   13.411625
      8          1           0       -7.604505    5.051311   12.143861
      9          1           0      -10.662354    2.591615   10.348979
     10          1           0      -10.928654    1.366231   12.487933
     11          1           0       -9.552502    1.999824   14.468813
     12          1           0       -7.870982    3.827054   14.269661
     13          6           0       -9.083807    4.674696    9.835718
     14          6           0       -8.419424    5.829202    9.619612
     15          1           0       -9.668767    4.245023    9.014706
     16          1           0       -8.438822    6.303278    8.637215
     17          1           0       -7.793022    6.301156   10.375923
     18          8           0       -0.975180   -1.803941    7.464650
     19          8           0       -8.387131   -1.331969    7.462028
     20          8           0       -7.017878    1.346013   10.474411
     21          8           0       -2.334597   -4.398305   10.555086
     22         74           0       -3.398159    0.692721    6.480166
     23         74           0       -5.988769   -3.822366    6.558584
     24         74           0       -3.607436    0.869433   11.414404
     25         74           0       -5.761856   -3.867816   11.482352
     26         74           0       -2.430456   -2.591650    6.400722
     27         74           0       -6.933556   -0.535608    6.368107
     28         74           0       -6.812338   -0.251989   11.563380
     29         74           0       -2.544296   -2.740843   11.604624
     30          8           0       -3.163342    1.875734    5.299410
     31          8           0       -6.122699   -5.072760    5.416463
     32          8           0       -2.678686    1.708851   12.564116
     33          8           0       -6.681049   -4.669034   12.664328
     34          8           0       -2.659226   -0.916824    5.588928
     35          8           0       -6.699230   -2.269902    5.620282
     36          8           0       -5.302362    0.549065   12.358825
     37          8           0       -4.050076   -3.535788   12.408317
     38          8           0        0.317226   -0.023398    9.277258
     39          8           0       -9.690314   -3.040945    9.324215
     40          8           0       -6.346130    3.428255    8.664975
     41          8           0       -3.010093   -6.495266    8.743952
     42          8           0       -1.775961    0.743021    7.473127
     43          8           0       -7.596783   -3.883161    7.541276
     44          8           0       -4.487805    2.194733   10.425384
     45          8           0       -4.872477   -5.234945   10.530226
     46          8           0       -1.601037   -3.531677    5.251987
     47          8           0       -7.809867    0.275126    5.174369
     48          8           0       -8.032717   -0.164192   12.741490
     49          8           0       -1.310262   -2.861950   12.766072
     50         74           0       -1.242030   -0.539826    8.838664
     51         74           0       -8.130437   -2.538573    8.873678
     52         74           0       -5.870686    1.856244    9.043501
     53         74           0       -3.494105   -4.920894    9.163473
     54          8           0       -4.211926   -3.115292    6.073237
     55          8           0       -5.146656   -0.062847    6.018522
     56          8           0       -6.166531   -2.001149   11.910541
     57          8           0       -3.170947   -0.992441   11.917124
     58          8           0       -4.348540    1.579002    7.835027
     59          8           0       -5.008708   -4.685456    7.924736
     60          8           0       -2.316460    0.562297   10.075959
     61          8           0       -7.043891   -3.616108   10.130301
     62          8           0       -2.570772   -3.910633    7.868115
     63          8           0       -6.805167    0.792970    7.802552
     64          8           0       -7.820206   -1.178385   10.141582
     65          8           0       -1.552186   -1.875870   10.140408
     66          8           0       -3.352454   -1.161400    8.012491
     67          8           0       -6.013287   -1.962533    8.033816
     68          8           0       -5.111041   -0.211473    9.942368
     69          8           0       -4.236716   -2.850626    9.975969
     70         19           0       -3.214087   -6.133627    5.647670
     71         19           0       -0.117455    0.040354   12.326853
     72         19           0       -9.283321   -2.822886   12.424881
     73         23           0       -4.680433   -1.543313    8.989840
 ---------------------------------------------------------------------

 SCF Done:  E(RwB97XD) =  -7327.70186537     A.U. after   11 cycles

 Alpha  occ. eigenvalues -- -197.29450-130.00090-130.00077-129.99983-101.48360
 Alpha  occ. eigenvalues --  -22.62574 -19.33631 -19.33623 -19.33619 -19.33598
 Alpha  occ. eigenvalues --  -19.30728 -19.30690 -19.30688 -19.30682 -19.30676
 Alpha  occ. eigenvalues --  -19.30670 -19.30665 -19.30637 -19.30564 -19.30369
 Alpha  occ. eigenvalues --  -19.30346 -19.30177 -19.29319 -19.29315 -19.29298
 Alpha  occ. eigenvalues --  -19.29278 -19.29267 -19.29260 -19.29229 -19.29207
 Alpha  occ. eigenvalues --  -19.29203 -19.29175 -19.29172 -19.29147 -19.29133
 Alpha  occ. eigenvalues --  -19.29098 -19.29091 -19.29091 -19.29088 -19.29062
 Alpha  occ. eigenvalues --  -19.29057 -19.29013 -19.28990 -19.28968 -19.28941
 Alpha  occ. eigenvalues --  -19.28862 -19.11530 -19.11522 -19.11514 -13.37494
 Alpha  occ. eigenvalues --  -13.37480 -13.37380 -10.70423 -10.70416 -10.70415
 Alpha  occ. eigenvalues --  -10.70410 -10.70403 -10.70401 -10.70311 -10.70304
 Alpha  occ. eigenvalues --  -10.70299 -10.29837 -10.29338 -10.29280 -10.29049
 Alpha  occ. eigenvalues --  -10.28957 -10.28944 -10.28068 -10.27480  -9.38836
 Alpha  occ. eigenvalues --   -7.13662  -7.13614  -7.13606  -3.23322  -3.23319
 Alpha  occ. eigenvalues --   -3.23305  -3.23299  -3.23293  -3.23277  -3.23261
 Alpha  occ. eigenvalues --   -3.23259  -3.23229  -3.22979  -3.22964  -3.22785
 Alpha  occ. eigenvalues --   -2.91814  -1.94195  -1.94161  -1.94149  -1.87722
 Alpha  occ. eigenvalues --   -1.87678  -1.87662  -1.87633  -1.87492  -1.87473
 Alpha  occ. eigenvalues --   -1.87470  -1.87453  -1.87430  -1.87279  -1.87250
 Alpha  occ. eigenvalues --   -1.87098  -1.86630  -1.86512  -1.86502  -1.86485
 Alpha  occ. eigenvalues --   -1.86460  -1.86438  -1.86346  -1.86336  -1.86319
 Alpha  occ. eigenvalues --   -1.86300  -1.86294  -1.86265  -1.86150  -1.86137
 Alpha  occ. eigenvalues --   -1.86126  -1.86117  -1.86045  -1.86031  -1.85992
 Alpha  occ. eigenvalues --   -1.85924  -1.85907  -1.85807  -1.85718  -1.85670
 Alpha  occ. eigenvalues --   -1.51184  -1.51170  -1.51078  -1.13061  -1.11290
 Alpha  occ. eigenvalues --   -1.11207  -1.11204  -1.08968  -1.08532  -1.08492
 Alpha  occ. eigenvalues --   -1.08323  -1.07568  -1.07508  -1.07498  -1.06903
 Alpha  occ. eigenvalues --   -1.06895  -1.06875  -1.06329  -1.06309  -1.05320
 Alpha  occ. eigenvalues --   -1.05312  -1.04983  -1.04979  -1.04969  -1.04196
 Alpha  occ. eigenvalues --   -1.04185  -1.04174  -1.04031  -1.04010  -1.04000
 Alpha  occ. eigenvalues --   -1.03943  -1.03920  -1.03899  -1.03765  -1.03743
 Alpha  occ. eigenvalues --   -1.03620  -1.03557  -1.03304  -1.03265  -1.03120
 Alpha  occ. eigenvalues --   -1.03108  -1.03030  -1.02966  -0.94360  -0.86653
 Alpha  occ. eigenvalues --   -0.86642  -0.86555  -0.86482  -0.86459  -0.86458
 Alpha  occ. eigenvalues --   -0.86449  -0.86434  -0.86367  -0.86330  -0.82800
 Alpha  occ. eigenvalues --   -0.79732  -0.71619  -0.69650  -0.67993  -0.64619
 Alpha  occ. eigenvalues --   -0.63995  -0.63915  -0.63903  -0.63320  -0.63301
 Alpha  occ. eigenvalues --   -0.63177  -0.62917  -0.62683  -0.62606  -0.62000
 Alpha  occ. eigenvalues --   -0.61626  -0.61613  -0.61517  -0.61259  -0.61249
 Alpha  occ. eigenvalues --   -0.61181  -0.60419  -0.59487  -0.59467  -0.59455
 Alpha  occ. eigenvalues --   -0.59417  -0.59369  -0.58567  -0.58006  -0.57976
 Alpha  occ. eigenvalues --   -0.57887  -0.57071  -0.57036  -0.57007  -0.56296
 Alpha  occ. eigenvalues --   -0.56277  -0.56122  -0.55704  -0.54863  -0.54812
 Alpha  occ. eigenvalues --   -0.54771  -0.54513  -0.54244  -0.54112  -0.54101
 Alpha  occ. eigenvalues --   -0.54022  -0.53963  -0.53242  -0.53205  -0.53075
 Alpha  occ. eigenvalues --   -0.53041  -0.52906  -0.52711  -0.52676  -0.52643
 Alpha  occ. eigenvalues --   -0.52609  -0.52511  -0.52470  -0.52422  -0.51614
 Alpha  occ. eigenvalues --   -0.51597  -0.51328  -0.51310  -0.51266  -0.51227
 Alpha  occ. eigenvalues --   -0.51173  -0.51163  -0.50928  -0.50770  -0.50595
 Alpha  occ. eigenvalues --   -0.50577  -0.50569  -0.49877  -0.49875  -0.49299
 Alpha  occ. eigenvalues --   -0.49275  -0.49244  -0.49215  -0.49164  -0.49078
 Alpha  occ. eigenvalues --   -0.48898  -0.48078  -0.48029  -0.47923  -0.47665
 Alpha  occ. eigenvalues --   -0.47389  -0.47291  -0.47249  -0.46997  -0.46937
 Alpha  occ. eigenvalues --   -0.46817  -0.46550  -0.46497  -0.46487  -0.46190
 Alpha  occ. eigenvalues --   -0.46142  -0.46105  -0.45588  -0.45104  -0.44921
 Alpha  occ. eigenvalues --   -0.44879  -0.44215  -0.44144  -0.44035  -0.43496
 Alpha  occ. eigenvalues --   -0.43285  -0.43233  -0.43118  -0.43104  -0.43072
 Alpha  occ. eigenvalues --   -0.42707  -0.42685  -0.42661  -0.42592  -0.42582
 Alpha  occ. eigenvalues --   -0.42500  -0.42468  -0.42446  -0.42290  -0.42273
 Alpha  occ. eigenvalues --   -0.42257  -0.42028  -0.41917  -0.41862  -0.41843
 Alpha  occ. eigenvalues --   -0.41167  -0.41164  -0.41128  -0.41022  -0.40548
 Alpha  occ. eigenvalues --   -0.40523  -0.40505  -0.40376  -0.39443  -0.39436
 Alpha  occ. eigenvalues --   -0.36976  -0.32542  -0.29178  -0.25140  -0.25114
 Alpha  occ. eigenvalues --   -0.23541
 Alpha virt. eigenvalues --   -0.09465  -0.09246  -0.08527  -0.08467  -0.07047
 Alpha virt. eigenvalues --   -0.07023  -0.06938  -0.04473  -0.04159  -0.04115
 Alpha virt. eigenvalues --   -0.03719  -0.03492  -0.03444  -0.03243  -0.03143

 Mulliken charges:
               1
     1  Cl  -0.893378
     2  C   -0.080253
     3  C    0.048935
     4  C   -0.079420
     5  C   -0.033738
     6  C   -0.033915
     7  C   -0.049737
     8  H    0.030265
     9  H    0.029178
    10  H    0.041011
    11  H    0.036834
    12  H    0.039883
    13  C   -0.124200
    14  C    0.024013
    15  H    0.020916
    16  H    0.036423
    17  H    0.024539
    18  O   -0.663878
    19  O   -0.663498
    20  O   -0.655369
    21  O   -0.664309
    22  W    1.735237
    23  W    1.677751
    24  W    1.687816
    25  W    1.698016
    26  W    1.677905
    27  W    1.729360
    28  W    1.620792
    29  W    1.688826
    30  O   -0.320162
    31  O   -0.365789
    32  O   -0.367915
    33  O   -0.360100
    34  O   -0.664889
    35  O   -0.671335
    36  O   -0.661784
    37  O   -0.664684
    38  O   -0.368101
    39  O   -0.364874
    40  O   -0.297509
    41  O   -0.365123
    42  O   -0.670731
    43  O   -0.664328
    44  O   -0.661190
    45  O   -0.666107
    46  O   -0.368431
    47  O   -0.320463
    48  O   -0.361977
    49  O   -0.362141
    50  W    1.675368
    51  W    1.681553
    52  W    1.685058
    53  W    1.687470
    54  O   -0.726419
    55  O   -0.709060
    56  O   -0.726571
    57  O   -0.724233
    58  O   -0.706878
    59  O   -0.727767
    60  O   -0.726271
    61  O   -0.721865
    62  O   -0.725770
    63  O   -0.708296
    64  O   -0.725788
    65  O   -0.727008
    66  O   -0.802558
    67  O   -0.801733
    68  O   -0.798870
    69  O   -0.810506
    70  K    0.863376
    71  K    0.862864
    72  K    0.860504
    73  V    1.195029
 Sum of Mulliken charges =  -1.00000

 Dipole moment (field-independent basis, Debye):
    X=             50.2323    Y=            -51.1278    Z=            -38.7606  Tot=             81.4845
 Quadrupole moment (field-independent basis, Debye-Ang):
   XX=          -1040.6536   YY=           -888.9869   ZZ=           -915.7274
   XY=            446.3553   XZ=            449.4908   YZ=           -476.8213

 Normal termination of Gaussian 16 at Sun Jun  2 20:42:35 2024.
