 Gaussian 16, Revision C.01,
 Gaussian 16:  ES64L-G16RevC.01  3-Jul-2019

 ----------------------------------------------------------------------
 # def2svp wb97xd scrf=(smd,solvent=acetonitrile) g09default scf=(xqc,m
 axcycle=64) force guess=read nosymm
 ----------------------------------------------------------------------

 ----------
 Title Card
 ----------
 Symbolic Z-matrix:
 Charge = -1 Multiplicity = 1

                          Input orientation:
 ---------------------------------------------------------------------
 Center     Atomic      Atomic             Coordinates (Angstroms)
 Number     Number       Type             X           Y           Z
 ---------------------------------------------------------------------
      1         17           0       -9.643061    8.271152   10.542204
      2          6           0       -8.347653    4.253541   12.212727
      3          6           0       -9.142487    3.932765   11.096125
      4          6           0      -10.055812    2.868851   11.215697
      5          6           0      -10.206416    2.182938   12.416168
      6          6           0       -9.433949    2.534844   13.524088
      7          6           0       -8.493976    3.561950   13.411625
      8          1           0       -7.604505    5.051311   12.143861
      9          1           0      -10.662354    2.591615   10.348979
     10          1           0      -10.928654    1.366231   12.487933
     11          1           0       -9.552502    1.999824   14.468813
     12          1           0       -7.870982    3.827054   14.269661
     13          6           0       -9.083807    4.674696    9.835718
     14          6           0       -8.419424    5.829202    9.619612
     15          1           0       -9.668767    4.245023    9.014706
     16          1           0       -8.438822    6.303278    8.637215
     17          1           0       -7.793022    6.301156   10.375923
     18          8           0       -0.975180   -1.803941    7.464650
     19          8           0       -8.387131   -1.331969    7.462028
     20          8           0       -7.017878    1.346013   10.474411
     21          8           0       -2.334597   -4.398305   10.555086
     22         74           0       -3.398159    0.692721    6.480166
     23         74           0       -5.988769   -3.822366    6.558584
     24         74           0       -3.607436    0.869433   11.414404
     25         74           0       -5.761856   -3.867816   11.482352
     26         74           0       -2.430456   -2.591650    6.400722
     27         74           0       -6.933556   -0.535608    6.368107
     28         74           0       -6.812338   -0.251989   11.563380
     29         74           0       -2.544296   -2.740843   11.604624
     30          8           0       -3.163342    1.875734    5.299410
     31          8           0       -6.122699   -5.072760    5.416463
     32          8           0       -2.678686    1.708851   12.564116
     33          8           0       -6.681049   -4.669034   12.664328
     34          8           0       -2.659226   -0.916824    5.588928
     35          8           0       -6.699230   -2.269902    5.620282
     36          8           0       -5.302362    0.549065   12.358825
     37          8           0       -4.050076   -3.535788   12.408317
     38          8           0        0.317226   -0.023398    9.277258
     39          8           0       -9.690314   -3.040945    9.324215
     40          8           0       -6.346130    3.428255    8.664975
     41          8           0       -3.010093   -6.495266    8.743952
     42          8           0       -1.775961    0.743021    7.473127
     43          8           0       -7.596783   -3.883161    7.541276
     44          8           0       -4.487805    2.194733   10.425384
     45          8           0       -4.872477   -5.234945   10.530226
     46          8           0       -1.601037   -3.531677    5.251987
     47          8           0       -7.809867    0.275126    5.174369
     48          8           0       -8.032717   -0.164192   12.741490
     49          8           0       -1.310262   -2.861950   12.766072
     50         74           0       -1.242030   -0.539826    8.838664
     51         74           0       -8.130437   -2.538573    8.873678
     52         74           0       -5.870686    1.856244    9.043501
     53         74           0       -3.494105   -4.920894    9.163473
     54          8           0       -4.211926   -3.115292    6.073237
     55          8           0       -5.146656   -0.062847    6.018522
     56          8           0       -6.166531   -2.001149   11.910541
     57          8           0       -3.170947   -0.992441   11.917124
     58          8           0       -4.348540    1.579002    7.835027
     59          8           0       -5.008708   -4.685456    7.924736
     60          8           0       -2.316460    0.562297   10.075959
     61          8           0       -7.043891   -3.616108   10.130301
     62          8           0       -2.570772   -3.910633    7.868115
     63          8           0       -6.805167    0.792970    7.802552
     64          8           0       -7.820206   -1.178385   10.141582
     65          8           0       -1.552186   -1.875870   10.140408
     66          8           0       -3.352454   -1.161400    8.012491
     67          8           0       -6.013287   -1.962533    8.033816
     68          8           0       -5.111041   -0.211473    9.942368
     69          8           0       -4.236716   -2.850626    9.975969
     70         19           0       -3.214087   -6.133627    5.647670
     71         19           0       -0.117455    0.040354   12.326853
     72         19           0       -9.283321   -2.822886   12.424881
     73         23           0       -4.680433   -1.543313    8.989840
 ---------------------------------------------------------------------

 SCF Done:  E(UwB97XD) =  -7327.70186443     A.U. after   34 cycles

 Alpha  occ. eigenvalues --  -19.24679 -18.94166 -18.93075 -18.93044 -13.36500
 Alpha  occ. eigenvalues --  -13.36473 -13.36449 -10.69427 -10.69423 -10.69421
 Alpha  occ. eigenvalues --  -10.69400 -10.69396 -10.69395 -10.69377 -10.69373
 Alpha  occ. eigenvalues --  -10.69367 -10.33019 -10.32193 -10.31984 -10.31036
 Alpha  occ. eigenvalues --  -10.31005 -10.30976 -10.30589 -10.30515  -9.52574
 Alpha  occ. eigenvalues --   -7.27457  -7.27116  -7.27111  -3.21128  -3.21102
 Alpha  occ. eigenvalues --   -3.21069  -3.21050  -3.21038  -3.21026  -3.21015
 Alpha  occ. eigenvalues --   -3.21013  -3.21003  -3.20875  -3.20873  -3.20842
 Alpha  occ. eigenvalues --   -2.78859  -1.85360  -1.85295  -1.85285  -1.85258
 Alpha  occ. eigenvalues --   -1.85151  -1.85080  -1.85064  -1.85046  -1.85033
 Alpha  occ. eigenvalues --   -1.85022  -1.85007  -1.84953  -1.84397  -1.84286
 Alpha  occ. eigenvalues --   -1.84273  -1.84255  -1.84222  -1.84212  -1.84155
 Alpha  occ. eigenvalues --   -1.84139  -1.84113  -1.84104  -1.84074  -1.84063
 Alpha  occ. eigenvalues --   -1.83967  -1.83925  -1.83886  -1.83879  -1.83866
 Alpha  occ. eigenvalues --   -1.83835  -1.83812  -1.83800  -1.83792  -1.83698
 Alpha  occ. eigenvalues --   -1.83686  -1.83679  -1.82016  -1.81674  -1.81656
 Alpha  occ. eigenvalues --   -1.50205  -1.50179  -1.50160  -1.08632  -1.07009
 Alpha  occ. eigenvalues --   -1.06966  -1.06925  -1.06022  -1.06008  -1.05984
 Alpha  occ. eigenvalues --   -1.04586  -1.04576  -1.04567  -1.03993  -1.03984
 Alpha  occ. eigenvalues --   -1.03726  -1.03381  -1.03347  -1.03326  -1.03033
 Alpha  occ. eigenvalues --   -1.03004  -1.02273  -1.02240  -1.02230  -1.02102
 Alpha  occ. eigenvalues --   -1.02013  -1.01985  -1.01912  -1.01897  -1.01776
 Alpha  occ. eigenvalues --   -1.01766  -1.01748  -1.01626  -1.01583  -1.01572
 Alpha  occ. eigenvalues --   -1.01307  -1.00823  -1.00759  -1.00697  -1.00690
 Alpha  occ. eigenvalues --   -1.00017  -0.99965  -0.99899  -0.96199  -0.89286
 Alpha  occ. eigenvalues --   -0.85652  -0.85623  -0.85613  -0.85498  -0.85480
 Alpha  occ. eigenvalues --   -0.85467  -0.85465  -0.85464  -0.85421  -0.84281
 Alpha  occ. eigenvalues --   -0.82506  -0.81048  -0.71933  -0.69627  -0.65076
 Alpha  occ. eigenvalues --   -0.62344  -0.61734  -0.61665  -0.61640  -0.60594
 Alpha  occ. eigenvalues --   -0.58983  -0.58964  -0.58942  -0.58890  -0.58821
 Alpha  occ. eigenvalues --   -0.58807  -0.58782  -0.58741  -0.58563  -0.57396
 Alpha  occ. eigenvalues --   -0.57354  -0.57334  -0.57041  -0.56772  -0.56510
 Alpha  occ. eigenvalues --   -0.56462  -0.56424  -0.56038  -0.55889  -0.55367
 Alpha  occ. eigenvalues --   -0.55357  -0.55319  -0.54451  -0.54160  -0.54136
 Alpha  occ. eigenvalues --   -0.53957  -0.53723  -0.53674  -0.53661  -0.52741
 Alpha  occ. eigenvalues --   -0.52654  -0.52610  -0.52505  -0.52466  -0.51487
 Alpha  occ. eigenvalues --   -0.51479  -0.51456  -0.51373  -0.51319  -0.50792
 Alpha  occ. eigenvalues --   -0.50571  -0.50534  -0.50489  -0.50408  -0.50339
 Alpha  occ. eigenvalues --   -0.50285  -0.50064  -0.50026  -0.49995  -0.49745
 Alpha  occ. eigenvalues --   -0.49652  -0.49610  -0.49507  -0.49486  -0.49281
 Alpha  occ. eigenvalues --   -0.49234  -0.49201  -0.49144  -0.49098  -0.49026
 Alpha  occ. eigenvalues --   -0.48711  -0.48550  -0.48527  -0.48464  -0.47658
 Alpha  occ. eigenvalues --   -0.47637  -0.47156  -0.46481  -0.46047  -0.46028
 Alpha  occ. eigenvalues --   -0.45885  -0.45850  -0.45756  -0.45627  -0.45225
 Alpha  occ. eigenvalues --   -0.45149  -0.45144  -0.44780  -0.44583  -0.44490
 Alpha  occ. eigenvalues --   -0.44475  -0.44440  -0.44298  -0.44216  -0.44185
 Alpha  occ. eigenvalues --   -0.43467  -0.43109  -0.42546  -0.42513  -0.42435
 Alpha  occ. eigenvalues --   -0.42333  -0.42206  -0.42178  -0.42167  -0.41640
 Alpha  occ. eigenvalues --   -0.41624  -0.41594  -0.41035  -0.40987  -0.40773
 Alpha  occ. eigenvalues --   -0.40761  -0.40733  -0.40369  -0.40351  -0.40322
 Alpha  occ. eigenvalues --   -0.40204  -0.40170  -0.40160  -0.40120  -0.39859
 Alpha  occ. eigenvalues --   -0.39368  -0.39261  -0.39231  -0.39128  -0.39058
 Alpha  occ. eigenvalues --   -0.38904  -0.38874  -0.38804  -0.38764  -0.38697
 Alpha  occ. eigenvalues --   -0.38305  -0.38272  -0.38224  -0.38038  -0.37215
 Alpha  occ. eigenvalues --   -0.37181  -0.34768  -0.34730  -0.33661  -0.30400
 Alpha  occ. eigenvalues --   -0.25837
 Alpha virt. eigenvalues --   -0.12085  -0.06402  -0.06340  -0.04893  -0.04857
 Alpha virt. eigenvalues --   -0.04759  -0.01518  -0.01414  -0.01377  -0.01161
 Alpha virt. eigenvalues --   -0.00925  -0.00921  -0.00886  -0.00161  -0.00093

  Beta  occ. eigenvalues -- -197.10909-129.99090-129.99064-129.99046-101.62565
  Beta  occ. eigenvalues --  -22.43326 -19.28541 -19.28509 -19.28453 -19.28424
  Beta  occ. eigenvalues --  -19.28394 -19.28376 -19.28359 -19.28354 -19.28347
  Beta  occ. eigenvalues --  -19.28275 -19.28257 -19.28165 -19.26946 -19.26921
  Beta  occ. eigenvalues --  -19.26915 -19.26860 -19.26849 -19.26836 -19.26835
  Beta  occ. eigenvalues --  -19.26832 -19.26817 -19.26810 -19.26809 -19.26791
  Beta  occ. eigenvalues --  -19.26783 -19.26777 -19.26767 -19.26763 -19.26761
  Beta  occ. eigenvalues --  -19.26756 -19.26749 -19.26734 -19.26722 -19.26717
  Beta  occ. eigenvalues --  -19.26653 -19.26616 -19.24742 -19.24712 -19.24682
  Beta  occ. eigenvalues --  -19.24654 -18.93820 -18.91627 -18.91565 -13.36500
  Beta  occ. eigenvalues --  -13.36473 -13.36449 -10.69427 -10.69423 -10.69421
  Beta  occ. eigenvalues --  -10.69400 -10.69396 -10.69395 -10.69377 -10.69373
  Beta  occ. eigenvalues --  -10.69367 -10.33299 -10.32309 -10.31933 -10.31140
  Beta  occ. eigenvalues --  -10.31129 -10.31077 -10.30531 -10.30456  -9.53024
  Beta  occ. eigenvalues --   -7.28870  -7.27423  -7.27418  -3.21128  -3.21096
  Beta  occ. eigenvalues --   -3.21069  -3.21044  -3.21037  -3.21020  -3.21010
  Beta  occ. eigenvalues --   -3.21007  -3.20997  -3.20874  -3.20869  -3.20837
  Beta  occ. eigenvalues --   -2.74795  -1.85354  -1.85290  -1.85280  -1.85250
  Beta  occ. eigenvalues --   -1.85145  -1.85074  -1.85059  -1.85040  -1.85025
  Beta  occ. eigenvalues --   -1.85013  -1.85002  -1.84944  -1.84395  -1.84284
  Beta  occ. eigenvalues --   -1.84269  -1.84253  -1.84220  -1.84209  -1.84152
  Beta  occ. eigenvalues --   -1.84137  -1.84109  -1.84101  -1.84071  -1.84060
  Beta  occ. eigenvalues --   -1.83964  -1.83922  -1.83884  -1.83877  -1.83863
  Beta  occ. eigenvalues --   -1.83832  -1.83809  -1.83797  -1.83789  -1.83695
  Beta  occ. eigenvalues --   -1.83683  -1.83676  -1.80677  -1.75980  -1.75844
  Beta  occ. eigenvalues --   -1.50205  -1.50179  -1.50160  -1.08615  -1.06989
  Beta  occ. eigenvalues --   -1.06944  -1.06898  -1.06021  -1.06006  -1.05982
  Beta  occ. eigenvalues --   -1.04587  -1.04577  -1.04566  -1.03995  -1.03984
  Beta  occ. eigenvalues --   -1.03659  -1.03350  -1.03307  -1.03292  -1.03032
  Beta  occ. eigenvalues --   -1.02996  -1.02255  -1.02217  -1.02211  -1.02093
  Beta  occ. eigenvalues --   -1.02008  -1.01971  -1.01907  -1.01883  -1.01772
  Beta  occ. eigenvalues --   -1.01764  -1.01745  -1.01622  -1.01580  -1.01556
  Beta  occ. eigenvalues --   -1.01307  -1.00785  -1.00756  -1.00697  -1.00690
  Beta  occ. eigenvalues --   -0.99883  -0.99827  -0.99780  -0.96428  -0.89958
  Beta  occ. eigenvalues --   -0.85652  -0.85623  -0.85613  -0.85498  -0.85480
  Beta  occ. eigenvalues --   -0.85467  -0.85465  -0.85464  -0.85421  -0.84679
  Beta  occ. eigenvalues --   -0.84365  -0.82710  -0.72191  -0.69749  -0.65327
  Beta  occ. eigenvalues --   -0.62343  -0.61734  -0.61665  -0.61640  -0.60808
  Beta  occ. eigenvalues --   -0.58980  -0.58963  -0.58941  -0.58809  -0.58800
  Beta  occ. eigenvalues --   -0.58772  -0.58753  -0.58691  -0.58563  -0.57357
  Beta  occ. eigenvalues --   -0.57212  -0.57166  -0.57018  -0.56930  -0.56513
  Beta  occ. eigenvalues --   -0.56430  -0.56388  -0.55845  -0.55634  -0.55347
  Beta  occ. eigenvalues --   -0.55338  -0.55320  -0.54661  -0.54153  -0.54128
  Beta  occ. eigenvalues --   -0.53947  -0.53688  -0.53647  -0.53616  -0.52806
  Beta  occ. eigenvalues --   -0.52661  -0.52597  -0.52486  -0.52461  -0.51466
  Beta  occ. eigenvalues --   -0.51453  -0.51444  -0.51318  -0.51247  -0.50991
  Beta  occ. eigenvalues --   -0.50567  -0.50478  -0.50467  -0.50341  -0.50249
  Beta  occ. eigenvalues --   -0.50169  -0.50034  -0.50022  -0.49960  -0.49693
  Beta  occ. eigenvalues --   -0.49627  -0.49573  -0.49496  -0.49475  -0.49280
  Beta  occ. eigenvalues --   -0.49213  -0.49199  -0.49117  -0.49085  -0.49006
  Beta  occ. eigenvalues --   -0.48705  -0.48545  -0.48527  -0.48457  -0.47826
  Beta  occ. eigenvalues --   -0.47606  -0.47573  -0.46047  -0.45907  -0.45873
  Beta  occ. eigenvalues --   -0.45818  -0.45674  -0.45571  -0.45225  -0.45166
  Beta  occ. eigenvalues --   -0.45150  -0.45052  -0.44779  -0.44581  -0.44473
  Beta  occ. eigenvalues --   -0.44423  -0.44414  -0.44278  -0.44194  -0.44167
  Beta  occ. eigenvalues --   -0.43461  -0.43214  -0.42492  -0.42455  -0.42406
  Beta  occ. eigenvalues --   -0.42293  -0.42253  -0.42145  -0.42130  -0.41628
  Beta  occ. eigenvalues --   -0.41606  -0.41573  -0.41392  -0.41041  -0.40945
  Beta  occ. eigenvalues --   -0.40753  -0.40701  -0.40671  -0.40354  -0.40341
  Beta  occ. eigenvalues --   -0.40307  -0.40157  -0.40146  -0.40134  -0.39801
  Beta  occ. eigenvalues --   -0.39617  -0.39367  -0.39167  -0.39087  -0.39082
  Beta  occ. eigenvalues --   -0.38895  -0.38843  -0.38810  -0.38749  -0.38703
  Beta  occ. eigenvalues --   -0.38651  -0.38301  -0.38268  -0.38220  -0.37690
  Beta  occ. eigenvalues --   -0.37216  -0.37175  -0.35706  -0.35661  -0.33945
  Beta  occ. eigenvalues --   -0.30884
  Beta virt. eigenvalues --   -0.06400  -0.06340  -0.04892  -0.04856  -0.04758
  Beta virt. eigenvalues --   -0.01514  -0.01410  -0.01371  -0.01155  -0.00920
  Beta virt. eigenvalues --   -0.00916  -0.00882  -0.00150  -0.00081  -0.00043

 Mulliken charges and spin densities:
               1          2
     1  Cl  -0.348821  -0.607121
     2  C   -0.035111  -0.096429
     3  C    0.012365   0.057703
     4  C   -0.034870  -0.092344
     5  C   -0.031489   0.058852
     6  C    0.007703  -0.116210
     7  C   -0.047856   0.058926
     8  H    0.051012   0.004214
     9  H    0.050858   0.003960
    10  H    0.056049  -0.002100
    11  H    0.057083   0.005104
    12  H    0.054659  -0.002072
    13  C    0.006201  -0.262509
    14  C   -0.044534  -0.018514
    15  H    0.076892   0.010808
    16  H    0.094986   0.001305
    17  H    0.087822  -0.001901
    18  O   -0.672851  -0.000568
    19  O   -0.672326  -0.000531
    20  O   -0.666679  -0.001617
    21  O   -0.673362  -0.000542
    22  W    1.718524   0.000359
    23  W    1.663456   0.000482
    24  W    1.675094   0.000169
    25  W    1.683869   0.000213
    26  W    1.664255   0.002700
    27  W    1.711584   0.002430
    28  W    1.612839   0.003349
    29  W    1.674390   0.002784
    30  O   -0.350057  -0.000529
    31  O   -0.394168  -0.000572
    32  O   -0.396347  -0.000613
    33  O   -0.388846  -0.000571
    34  O   -0.673210  -0.000279
    35  O   -0.678818  -0.000020
    36  O   -0.670929  -0.000125
    37  O   -0.673661  -0.000190
    38  O   -0.397928   0.002112
    39  O   -0.395014   0.002147
    40  O   -0.340487   0.000204
    41  O   -0.395188   0.002115
    42  O   -0.678432   0.000029
    43  O   -0.673024   0.000130
    44  O   -0.669736   0.000251
    45  O   -0.674600   0.000076
    46  O   -0.398335   0.002267
    47  O   -0.352149   0.002150
    48  O   -0.395154   0.001815
    49  O   -0.392295   0.002306
    50  W    1.661305   0.002783
    51  W    1.667059   0.002679
    52  W    1.678057   0.003923
    53  W    1.672748   0.002629
    54  O   -0.724287   0.000111
    55  O   -0.707164   0.000020
    56  O   -0.723179   0.000160
    57  O   -0.722108   0.000072
    58  O   -0.704715   0.000068
    59  O   -0.724940   0.000153
    60  O   -0.723705   0.000208
    61  O   -0.719419   0.000196
    62  O   -0.724191  -0.000186
    63  O   -0.707069  -0.000060
    64  O   -0.724802  -0.000208
    65  O   -0.725037  -0.000209
    66  O   -0.884916   0.005292
    67  O   -0.884951   0.007293
    68  O   -0.881969   0.007071
    69  O   -0.890359   0.006416
    70  K    0.849714   0.000191
    71  K    0.849388   0.000213
    72  K    0.846705   0.000214
    73  V    1.204470   0.937367
 Sum of Mulliken charges =  -1.00000  -0.00000

 Dipole moment (field-independent basis, Debye):
    X=             28.1263    Y=            -13.6152    Z=            -30.6327  Tot=             43.7587
 Quadrupole moment (field-independent basis, Debye-Ang):
   XX=           -759.2476   YY=           -711.2781   ZZ=           -780.1899
   XY=            126.4920   XZ=            174.3018   YZ=            -92.1660

 Normal termination of Gaussian 16 at Sun Jun  2 20:32:25 2024.
