 Gaussian 16, Revision C.01,
 Gaussian 16:  ES64L-G16RevC.01  3-Jul-2019

 ----------------------------------------------------------------------
 # def2svp wb97xd scrf=(smd,solvent=acetonitrile) g09default scf=(xqc,m
 axcycle=64) force guess=read nosymm
 ----------------------------------------------------------------------

 ----------
 Title Card
 ----------
 Symbolic Z-matrix:
 Charge = -1 Multiplicity = 1

                          Input orientation:
 ---------------------------------------------------------------------
 Center     Atomic      Atomic             Coordinates (Angstroms)
 Number     Number       Type             X           Y           Z
 ---------------------------------------------------------------------
      1         17           0       -9.642033    8.270271   10.541173
      2          6           0       -8.348931    4.254957   12.212068
      3          6           0       -9.143733    3.933374   11.095657
      4          6           0      -10.057282    2.869804   11.215895
      5          6           0      -10.206584    2.183451   12.416278
      6          6           0       -9.432576    2.534506   13.523295
      7          6           0       -8.493848    3.562771   13.410856
      8          1           0       -7.607399    5.054164   12.143582
      9          1           0      -10.665396    2.593739   10.349888
     10          1           0      -10.929489    1.367338   12.488735
     11          1           0       -9.549042    1.998165   14.467545
     12          1           0       -7.871102    3.828778   14.268707
     13          6           0       -9.085871    4.675535    9.835436
     14          6           0       -8.421234    5.830079    9.620401
     15          1           0       -9.671882    4.246777    9.014671
     16          1           0       -8.442608    6.307214    8.639648
     17          1           0       -7.793088    6.299318   10.376932
     18          8           0       -0.975212   -1.804623    7.464209
     19          8           0       -8.386341   -1.331678    7.462071
     20          8           0       -7.017268    1.345557   10.474900
     21          8           0       -2.334586   -4.398348   10.555113
     22         74           0       -3.397277    0.693611    6.481184
     23         74           0       -5.988834   -3.823234    6.558901
     24         74           0       -3.606488    0.869797   11.413614
     25         74           0       -5.762123   -3.868750   11.482078
     26         74           0       -2.430967   -2.591336    6.399921
     27         74           0       -6.932359   -0.536058    6.367276
     28         74           0       -6.811227   -0.252564   11.564316
     29         74           0       -2.544773   -2.741191   11.605256
     30          8           0       -3.162291    1.877168    5.301057
     31          8           0       -6.122990   -5.073525    5.416659
     32          8           0       -2.677834    1.709020   12.563457
     33          8           0       -6.681088   -4.670409   12.663989
     34          8           0       -2.659588   -0.916592    5.588906
     35          8           0       -6.698920   -2.270331    5.620287
     36          8           0       -5.301176    0.548737   12.358719
     37          8           0       -4.050259   -3.536301   12.408434
     38          8           0        0.318322   -0.025053    9.276815
     39          8           0       -9.690264   -3.040236    9.323657
     40          8           0       -6.346933    3.427621    8.665248
     41          8           0       -3.009424   -6.495406    8.744047
     42          8           0       -1.775153    0.742387    7.473252
     43          8           0       -7.596750   -3.883135    7.541452
     44          8           0       -4.487293    2.194651   10.425195
     45          8           0       -4.872314   -5.235307   10.530046
     46          8           0       -1.601524   -3.530745    5.250715
     47          8           0       -7.808592    0.274243    5.173204
     48          8           0       -8.031071   -0.163658   12.742773
     49          8           0       -1.311312   -2.862437   12.767375
     50         74           0       -1.241120   -0.541251    8.838831
     51         74           0       -8.130234   -2.537968    8.873614
     52         74           0       -5.871307    1.855815    9.043609
     53         74           0       -3.493594   -4.920951    9.163304
     54          8           0       -4.212215   -3.115765    6.073021
     55          8           0       -5.145974   -0.062562    6.018610
     56          8           0       -6.166408   -2.001835   11.911297
     57          8           0       -3.170498   -0.992619   11.916596
     58          8           0       -4.348044    1.579024    7.835672
     59          8           0       -5.008833   -4.686273    7.924713
     60          8           0       -2.315250    0.562048   10.075727
     61          8           0       -7.043991   -3.616365   10.130460
     62          8           0       -2.571085   -3.910836    7.867683
     63          8           0       -6.804735    0.792670    7.802471
     64          8           0       -7.819710   -1.178588   10.142278
     65          8           0       -1.551344   -1.876480   10.140780
     66          8           0       -3.352121   -1.161624    8.012792
     67          8           0       -6.012675   -1.962984    8.033821
     68          8           0       -5.110455   -0.211733    9.942300
     69          8           0       -4.236860   -2.850880    9.976050
     70         19           0       -3.214451   -6.133909    5.647818
     71         19           0       -0.118468    0.038428   12.325752
     72         19           0       -9.283320   -2.822253   12.423893
     73         23           0       -4.680078   -1.543631    8.989897
 ---------------------------------------------------------------------

 SCF Done:  E(RwB97XD) =  -7327.70188337     A.U. after   10 cycles

 Alpha  occ. eigenvalues -- -197.29438-130.00091-130.00073-129.99985-101.48367
 Alpha  occ. eigenvalues --  -22.62563 -19.33627 -19.33619 -19.33617 -19.33592
 Alpha  occ. eigenvalues --  -19.30728 -19.30690 -19.30689 -19.30682 -19.30677
 Alpha  occ. eigenvalues --  -19.30670 -19.30665 -19.30638 -19.30566 -19.30369
 Alpha  occ. eigenvalues --  -19.30346 -19.30178 -19.29320 -19.29316 -19.29297
 Alpha  occ. eigenvalues --  -19.29280 -19.29269 -19.29263 -19.29232 -19.29209
 Alpha  occ. eigenvalues --  -19.29204 -19.29175 -19.29173 -19.29149 -19.29135
 Alpha  occ. eigenvalues --  -19.29100 -19.29095 -19.29091 -19.29090 -19.29063
 Alpha  occ. eigenvalues --  -19.29058 -19.29016 -19.28991 -19.28968 -19.28944
 Alpha  occ. eigenvalues --  -19.28862 -19.11519 -19.11511 -19.11503 -13.37495
 Alpha  occ. eigenvalues --  -13.37476 -13.37382 -10.70424 -10.70417 -10.70416
 Alpha  occ. eigenvalues --  -10.70405 -10.70398 -10.70396 -10.70313 -10.70306
 Alpha  occ. eigenvalues --  -10.70300 -10.29834 -10.29336 -10.29279 -10.29046
 Alpha  occ. eigenvalues --  -10.28953 -10.28941 -10.28065 -10.27469  -9.38844
 Alpha  occ. eigenvalues --   -7.13670  -7.13621  -7.13613  -3.23323  -3.23320
 Alpha  occ. eigenvalues --   -3.23305  -3.23299  -3.23293  -3.23276  -3.23261
 Alpha  occ. eigenvalues --   -3.23258  -3.23228  -3.22978  -3.22962  -3.22783
 Alpha  occ. eigenvalues --   -2.91806  -1.94188  -1.94154  -1.94143  -1.87722
 Alpha  occ. eigenvalues --   -1.87678  -1.87662  -1.87633  -1.87492  -1.87473
 Alpha  occ. eigenvalues --   -1.87470  -1.87453  -1.87431  -1.87278  -1.87249
 Alpha  occ. eigenvalues --   -1.87099  -1.86630  -1.86512  -1.86502  -1.86485
 Alpha  occ. eigenvalues --   -1.86460  -1.86438  -1.86346  -1.86336  -1.86319
 Alpha  occ. eigenvalues --   -1.86300  -1.86293  -1.86264  -1.86150  -1.86138
 Alpha  occ. eigenvalues --   -1.86126  -1.86117  -1.86045  -1.86031  -1.85992
 Alpha  occ. eigenvalues --   -1.85924  -1.85906  -1.85807  -1.85717  -1.85669
 Alpha  occ. eigenvalues --   -1.51185  -1.51166  -1.51080  -1.13058  -1.11288
 Alpha  occ. eigenvalues --   -1.11203  -1.11200  -1.08967  -1.08532  -1.08492
 Alpha  occ. eigenvalues --   -1.08324  -1.07568  -1.07507  -1.07497  -1.06903
 Alpha  occ. eigenvalues --   -1.06895  -1.06875  -1.06329  -1.06308  -1.05321
 Alpha  occ. eigenvalues --   -1.05313  -1.04984  -1.04980  -1.04969  -1.04197
 Alpha  occ. eigenvalues --   -1.04187  -1.04175  -1.04032  -1.04010  -1.04000
 Alpha  occ. eigenvalues --   -1.03943  -1.03921  -1.03899  -1.03766  -1.03744
 Alpha  occ. eigenvalues --   -1.03620  -1.03557  -1.03305  -1.03266  -1.03122
 Alpha  occ. eigenvalues --   -1.03111  -1.03032  -1.02968  -0.94358  -0.86654
 Alpha  occ. eigenvalues --   -0.86639  -0.86557  -0.86482  -0.86460  -0.86459
 Alpha  occ. eigenvalues --   -0.86446  -0.86430  -0.86369  -0.86332  -0.82799
 Alpha  occ. eigenvalues --   -0.79728  -0.71628  -0.69647  -0.67990  -0.64619
 Alpha  occ. eigenvalues --   -0.63994  -0.63915  -0.63902  -0.63317  -0.63298
 Alpha  occ. eigenvalues --   -0.63176  -0.62914  -0.62681  -0.62605  -0.61997
 Alpha  occ. eigenvalues --   -0.61625  -0.61611  -0.61516  -0.61259  -0.61249
 Alpha  occ. eigenvalues --   -0.61182  -0.60419  -0.59486  -0.59465  -0.59454
 Alpha  occ. eigenvalues --   -0.59416  -0.59369  -0.58568  -0.58006  -0.57975
 Alpha  occ. eigenvalues --   -0.57887  -0.57069  -0.57035  -0.57006  -0.56295
 Alpha  occ. eigenvalues --   -0.56276  -0.56122  -0.55705  -0.54863  -0.54812
 Alpha  occ. eigenvalues --   -0.54771  -0.54512  -0.54244  -0.54113  -0.54102
 Alpha  occ. eigenvalues --   -0.54023  -0.53963  -0.53243  -0.53207  -0.53076
 Alpha  occ. eigenvalues --   -0.53042  -0.52906  -0.52713  -0.52678  -0.52643
 Alpha  occ. eigenvalues --   -0.52612  -0.52511  -0.52470  -0.52418  -0.51615
 Alpha  occ. eigenvalues --   -0.51598  -0.51329  -0.51311  -0.51267  -0.51228
 Alpha  occ. eigenvalues --   -0.51174  -0.51163  -0.50929  -0.50772  -0.50598
 Alpha  occ. eigenvalues --   -0.50579  -0.50572  -0.49879  -0.49878  -0.49300
 Alpha  occ. eigenvalues --   -0.49275  -0.49242  -0.49214  -0.49164  -0.49079
 Alpha  occ. eigenvalues --   -0.48898  -0.48078  -0.48029  -0.47923  -0.47660
 Alpha  occ. eigenvalues --   -0.47389  -0.47292  -0.47250  -0.46997  -0.46940
 Alpha  occ. eigenvalues --   -0.46820  -0.46550  -0.46499  -0.46491  -0.46190
 Alpha  occ. eigenvalues --   -0.46142  -0.46105  -0.45588  -0.45105  -0.44921
 Alpha  occ. eigenvalues --   -0.44880  -0.44214  -0.44144  -0.44035  -0.43494
 Alpha  occ. eigenvalues --   -0.43286  -0.43235  -0.43119  -0.43105  -0.43073
 Alpha  occ. eigenvalues --   -0.42709  -0.42687  -0.42662  -0.42593  -0.42583
 Alpha  occ. eigenvalues --   -0.42501  -0.42470  -0.42448  -0.42292  -0.42274
 Alpha  occ. eigenvalues --   -0.42258  -0.42029  -0.41917  -0.41863  -0.41845
 Alpha  occ. eigenvalues --   -0.41170  -0.41165  -0.41127  -0.41024  -0.40549
 Alpha  occ. eigenvalues --   -0.40525  -0.40508  -0.40376  -0.39443  -0.39437
 Alpha  occ. eigenvalues --   -0.36977  -0.32541  -0.29181  -0.25147  -0.25120
 Alpha  occ. eigenvalues --   -0.23536
 Alpha virt. eigenvalues --   -0.09455  -0.09238  -0.08522  -0.08462  -0.07042
 Alpha virt. eigenvalues --   -0.07019  -0.06935  -0.04463  -0.04154  -0.04109
 Alpha virt. eigenvalues --   -0.03718  -0.03491  -0.03443  -0.03241  -0.03142

 Mulliken charges:
               1
     1  Cl  -0.892947
     2  C   -0.080423
     3  C    0.049065
     4  C   -0.079566
     5  C   -0.033726
     6  C   -0.033909
     7  C   -0.049681
     8  H    0.030165
     9  H    0.029130
    10  H    0.040996
    11  H    0.036817
    12  H    0.039813
    13  C   -0.124505
    14  C    0.024551
    15  H    0.020811
    16  H    0.036224
    17  H    0.024584
    18  O   -0.663846
    19  O   -0.663390
    20  O   -0.655368
    21  O   -0.664269
    22  W    1.734996
    23  W    1.677557
    24  W    1.687646
    25  W    1.697863
    26  W    1.677822
    27  W    1.729189
    28  W    1.620516
    29  W    1.688672
    30  O   -0.320161
    31  O   -0.365815
    32  O   -0.367874
    33  O   -0.360057
    34  O   -0.664734
    35  O   -0.671270
    36  O   -0.661735
    37  O   -0.664571
    38  O   -0.368020
    39  O   -0.364863
    40  O   -0.297418
    41  O   -0.365147
    42  O   -0.670684
    43  O   -0.664294
    44  O   -0.661054
    45  O   -0.666066
    46  O   -0.368348
    47  O   -0.320464
    48  O   -0.361834
    49  O   -0.362190
    50  W    1.675116
    51  W    1.681391
    52  W    1.684941
    53  W    1.687314
    54  O   -0.726405
    55  O   -0.708947
    56  O   -0.726504
    57  O   -0.724209
    58  O   -0.706742
    59  O   -0.727649
    60  O   -0.726258
    61  O   -0.721762
    62  O   -0.725725
    63  O   -0.708197
    64  O   -0.725848
    65  O   -0.726943
    66  O   -0.802474
    67  O   -0.801665
    68  O   -0.798804
    69  O   -0.810495
    70  K    0.863425
    71  K    0.862773
    72  K    0.860554
    73  V    1.194924
 Sum of Mulliken charges =  -1.00000

 Dipole moment (field-independent basis, Debye):
    X=             50.2103    Y=            -51.1099    Z=            -38.7712  Tot=             81.4648
 Quadrupole moment (field-independent basis, Debye-Ang):
   XX=          -1040.4215   YY=           -888.7663   ZZ=           -915.9948
   XY=            446.0832   XZ=            449.2859   YZ=           -476.5949

 Normal termination of Gaussian 16 at Sun Jun  2 21:17:04 2024.
