 Gaussian 16, Revision C.01,
 Gaussian 16:  ES64L-G16RevC.01  3-Jul-2019

 ----------------------------------------------------------------------
 # def2svp wb97xd scrf=(smd,solvent=acetonitrile) g09default scf=(xqc,m
 axcycle=64) force guess=read nosymm
 ----------------------------------------------------------------------

 ----------
 Title Card
 ----------
 Symbolic Z-matrix:
 Charge = -1 Multiplicity = 1

                          Input orientation:
 ---------------------------------------------------------------------
 Center     Atomic      Atomic             Coordinates (Angstroms)
 Number     Number       Type             X           Y           Z
 ---------------------------------------------------------------------
      1         17           0       -9.642033    8.270271   10.541173
      2          6           0       -8.348931    4.254957   12.212068
      3          6           0       -9.143733    3.933374   11.095657
      4          6           0      -10.057282    2.869804   11.215895
      5          6           0      -10.206584    2.183451   12.416278
      6          6           0       -9.432576    2.534506   13.523295
      7          6           0       -8.493848    3.562771   13.410856
      8          1           0       -7.607399    5.054164   12.143582
      9          1           0      -10.665396    2.593739   10.349888
     10          1           0      -10.929489    1.367338   12.488735
     11          1           0       -9.549042    1.998165   14.467545
     12          1           0       -7.871102    3.828778   14.268707
     13          6           0       -9.085871    4.675535    9.835436
     14          6           0       -8.421234    5.830079    9.620401
     15          1           0       -9.671882    4.246777    9.014671
     16          1           0       -8.442608    6.307214    8.639648
     17          1           0       -7.793088    6.299318   10.376932
     18          8           0       -0.975212   -1.804623    7.464209
     19          8           0       -8.386341   -1.331678    7.462071
     20          8           0       -7.017268    1.345557   10.474900
     21          8           0       -2.334586   -4.398348   10.555113
     22         74           0       -3.397277    0.693611    6.481184
     23         74           0       -5.988834   -3.823234    6.558901
     24         74           0       -3.606488    0.869797   11.413614
     25         74           0       -5.762123   -3.868750   11.482078
     26         74           0       -2.430967   -2.591336    6.399921
     27         74           0       -6.932359   -0.536058    6.367276
     28         74           0       -6.811227   -0.252564   11.564316
     29         74           0       -2.544773   -2.741191   11.605256
     30          8           0       -3.162291    1.877168    5.301057
     31          8           0       -6.122990   -5.073525    5.416659
     32          8           0       -2.677834    1.709020   12.563457
     33          8           0       -6.681088   -4.670409   12.663989
     34          8           0       -2.659588   -0.916592    5.588906
     35          8           0       -6.698920   -2.270331    5.620287
     36          8           0       -5.301176    0.548737   12.358719
     37          8           0       -4.050259   -3.536301   12.408434
     38          8           0        0.318322   -0.025053    9.276815
     39          8           0       -9.690264   -3.040236    9.323657
     40          8           0       -6.346933    3.427621    8.665248
     41          8           0       -3.009424   -6.495406    8.744047
     42          8           0       -1.775153    0.742387    7.473252
     43          8           0       -7.596750   -3.883135    7.541452
     44          8           0       -4.487293    2.194651   10.425195
     45          8           0       -4.872314   -5.235307   10.530046
     46          8           0       -1.601524   -3.530745    5.250715
     47          8           0       -7.808592    0.274243    5.173204
     48          8           0       -8.031071   -0.163658   12.742773
     49          8           0       -1.311312   -2.862437   12.767375
     50         74           0       -1.241120   -0.541251    8.838831
     51         74           0       -8.130234   -2.537968    8.873614
     52         74           0       -5.871307    1.855815    9.043609
     53         74           0       -3.493594   -4.920951    9.163304
     54          8           0       -4.212215   -3.115765    6.073021
     55          8           0       -5.145974   -0.062562    6.018610
     56          8           0       -6.166408   -2.001835   11.911297
     57          8           0       -3.170498   -0.992619   11.916596
     58          8           0       -4.348044    1.579024    7.835672
     59          8           0       -5.008833   -4.686273    7.924713
     60          8           0       -2.315250    0.562048   10.075727
     61          8           0       -7.043991   -3.616365   10.130460
     62          8           0       -2.571085   -3.910836    7.867683
     63          8           0       -6.804735    0.792670    7.802471
     64          8           0       -7.819710   -1.178588   10.142278
     65          8           0       -1.551344   -1.876480   10.140780
     66          8           0       -3.352121   -1.161624    8.012792
     67          8           0       -6.012675   -1.962984    8.033821
     68          8           0       -5.110455   -0.211733    9.942300
     69          8           0       -4.236860   -2.850880    9.976050
     70         19           0       -3.214451   -6.133909    5.647818
     71         19           0       -0.118468    0.038428   12.325752
     72         19           0       -9.283320   -2.822253   12.423893
     73         23           0       -4.680078   -1.543631    8.989897
 ---------------------------------------------------------------------

 SCF Done:  E(UwB97XD) =  -7327.70187894     A.U. after   35 cycles

 Alpha  occ. eigenvalues --  -19.24676 -18.94151 -18.93063 -18.93028 -13.36495
 Alpha  occ. eigenvalues --  -13.36474 -13.36450 -10.69422 -10.69418 -10.69416
 Alpha  occ. eigenvalues --  -10.69401 -10.69397 -10.69396 -10.69379 -10.69375
 Alpha  occ. eigenvalues --  -10.69369 -10.33023 -10.32200 -10.31986 -10.31038
 Alpha  occ. eigenvalues --  -10.31007 -10.30979 -10.30591 -10.30517  -9.52555
 Alpha  occ. eigenvalues --   -7.27438  -7.27097  -7.27093  -3.21127  -3.21102
 Alpha  occ. eigenvalues --   -3.21070  -3.21050  -3.21037  -3.21026  -3.21015
 Alpha  occ. eigenvalues --   -3.21013  -3.21003  -3.20874  -3.20871  -3.20841
 Alpha  occ. eigenvalues --   -2.78849  -1.85359  -1.85295  -1.85285  -1.85258
 Alpha  occ. eigenvalues --   -1.85151  -1.85080  -1.85063  -1.85047  -1.85034
 Alpha  occ. eigenvalues --   -1.85022  -1.85007  -1.84952  -1.84397  -1.84286
 Alpha  occ. eigenvalues --   -1.84273  -1.84256  -1.84223  -1.84212  -1.84155
 Alpha  occ. eigenvalues --   -1.84139  -1.84113  -1.84104  -1.84074  -1.84063
 Alpha  occ. eigenvalues --   -1.83966  -1.83925  -1.83887  -1.83880  -1.83866
 Alpha  occ. eigenvalues --   -1.83835  -1.83811  -1.83800  -1.83792  -1.83697
 Alpha  occ. eigenvalues --   -1.83686  -1.83678  -1.82007  -1.81666  -1.81646
 Alpha  occ. eigenvalues --   -1.50200  -1.50180  -1.50162  -1.08632  -1.07009
 Alpha  occ. eigenvalues --   -1.06966  -1.06925  -1.06022  -1.06008  -1.05984
 Alpha  occ. eigenvalues --   -1.04587  -1.04576  -1.04568  -1.03992  -1.03984
 Alpha  occ. eigenvalues --   -1.03724  -1.03380  -1.03346  -1.03325  -1.03034
 Alpha  occ. eigenvalues --   -1.03005  -1.02273  -1.02240  -1.02231  -1.02104
 Alpha  occ. eigenvalues --   -1.02013  -1.01985  -1.01913  -1.01898  -1.01778
 Alpha  occ. eigenvalues --   -1.01767  -1.01749  -1.01626  -1.01583  -1.01572
 Alpha  occ. eigenvalues --   -1.01308  -1.00823  -1.00760  -1.00699  -1.00692
 Alpha  occ. eigenvalues --   -1.00016  -0.99962  -0.99897  -0.96203  -0.89294
 Alpha  occ. eigenvalues --   -0.85648  -0.85624  -0.85614  -0.85493  -0.85475
 Alpha  occ. eigenvalues --   -0.85468  -0.85467  -0.85465  -0.85423  -0.84284
 Alpha  occ. eigenvalues --   -0.82508  -0.81037  -0.71936  -0.69630  -0.65078
 Alpha  occ. eigenvalues --   -0.62343  -0.61734  -0.61665  -0.61640  -0.60600
 Alpha  occ. eigenvalues --   -0.58984  -0.58964  -0.58943  -0.58890  -0.58821
 Alpha  occ. eigenvalues --   -0.58806  -0.58781  -0.58740  -0.58563  -0.57395
 Alpha  occ. eigenvalues --   -0.57352  -0.57332  -0.57040  -0.56778  -0.56510
 Alpha  occ. eigenvalues --   -0.56462  -0.56424  -0.56036  -0.55888  -0.55367
 Alpha  occ. eigenvalues --   -0.55357  -0.55319  -0.54450  -0.54162  -0.54137
 Alpha  occ. eigenvalues --   -0.53960  -0.53721  -0.53672  -0.53660  -0.52746
 Alpha  occ. eigenvalues --   -0.52655  -0.52610  -0.52505  -0.52466  -0.51487
 Alpha  occ. eigenvalues --   -0.51480  -0.51458  -0.51374  -0.51320  -0.50795
 Alpha  occ. eigenvalues --   -0.50572  -0.50534  -0.50489  -0.50409  -0.50340
 Alpha  occ. eigenvalues --   -0.50285  -0.50066  -0.50027  -0.49997  -0.49747
 Alpha  occ. eigenvalues --   -0.49654  -0.49612  -0.49508  -0.49488  -0.49282
 Alpha  occ. eigenvalues --   -0.49235  -0.49201  -0.49143  -0.49098  -0.49024
 Alpha  occ. eigenvalues --   -0.48712  -0.48552  -0.48529  -0.48465  -0.47660
 Alpha  occ. eigenvalues --   -0.47640  -0.47160  -0.46481  -0.46047  -0.46028
 Alpha  occ. eigenvalues --   -0.45885  -0.45854  -0.45756  -0.45628  -0.45225
 Alpha  occ. eigenvalues --   -0.45150  -0.45145  -0.44783  -0.44585  -0.44490
 Alpha  occ. eigenvalues --   -0.44476  -0.44440  -0.44298  -0.44218  -0.44188
 Alpha  occ. eigenvalues --   -0.43465  -0.43113  -0.42546  -0.42514  -0.42437
 Alpha  occ. eigenvalues --   -0.42332  -0.42209  -0.42178  -0.42167  -0.41640
 Alpha  occ. eigenvalues --   -0.41624  -0.41593  -0.41036  -0.40988  -0.40775
 Alpha  occ. eigenvalues --   -0.40762  -0.40735  -0.40372  -0.40354  -0.40324
 Alpha  occ. eigenvalues --   -0.40205  -0.40172  -0.40161  -0.40122  -0.39860
 Alpha  occ. eigenvalues --   -0.39367  -0.39262  -0.39232  -0.39130  -0.39057
 Alpha  occ. eigenvalues --   -0.38906  -0.38876  -0.38804  -0.38763  -0.38698
 Alpha  occ. eigenvalues --   -0.38307  -0.38274  -0.38227  -0.38043  -0.37215
 Alpha  occ. eigenvalues --   -0.37182  -0.34756  -0.34717  -0.33664  -0.30410
 Alpha  occ. eigenvalues --   -0.25825
 Alpha virt. eigenvalues --   -0.12070  -0.06397  -0.06336  -0.04889  -0.04853
 Alpha virt. eigenvalues --   -0.04756  -0.01517  -0.01414  -0.01376  -0.01159
 Alpha virt. eigenvalues --   -0.00924  -0.00921  -0.00885  -0.00161  -0.00093

  Beta  occ. eigenvalues -- -197.10894-129.99085-129.99065-129.99048-101.62546
  Beta  occ. eigenvalues --  -22.43312 -19.28541 -19.28509 -19.28452 -19.28426
  Beta  occ. eigenvalues --  -19.28396 -19.28376 -19.28359 -19.28354 -19.28347
  Beta  occ. eigenvalues --  -19.28275 -19.28259 -19.28165 -19.26946 -19.26922
  Beta  occ. eigenvalues --  -19.26916 -19.26861 -19.26851 -19.26837 -19.26836
  Beta  occ. eigenvalues --  -19.26835 -19.26818 -19.26811 -19.26810 -19.26791
  Beta  occ. eigenvalues --  -19.26784 -19.26779 -19.26770 -19.26766 -19.26762
  Beta  occ. eigenvalues --  -19.26758 -19.26751 -19.26736 -19.26725 -19.26718
  Beta  occ. eigenvalues --  -19.26654 -19.26619 -19.24740 -19.24707 -19.24676
  Beta  occ. eigenvalues --  -19.24650 -18.93806 -18.91617 -18.91548 -13.36495
  Beta  occ. eigenvalues --  -13.36474 -13.36450 -10.69422 -10.69418 -10.69416
  Beta  occ. eigenvalues --  -10.69401 -10.69397 -10.69396 -10.69379 -10.69375
  Beta  occ. eigenvalues --  -10.69369 -10.33304 -10.32316 -10.31935 -10.31143
  Beta  occ. eigenvalues --  -10.31131 -10.31080 -10.30532 -10.30458  -9.53004
  Beta  occ. eigenvalues --   -7.28849  -7.27404  -7.27400  -3.21126  -3.21096
  Beta  occ. eigenvalues --   -3.21069  -3.21044  -3.21037  -3.21020  -3.21009
  Beta  occ. eigenvalues --   -3.21007  -3.20997  -3.20872  -3.20868  -3.20836
  Beta  occ. eigenvalues --   -2.74785  -1.85354  -1.85290  -1.85280  -1.85250
  Beta  occ. eigenvalues --   -1.85146  -1.85074  -1.85059  -1.85041  -1.85025
  Beta  occ. eigenvalues --   -1.85013  -1.85001  -1.84944  -1.84395  -1.84284
  Beta  occ. eigenvalues --   -1.84269  -1.84253  -1.84220  -1.84209  -1.84152
  Beta  occ. eigenvalues --   -1.84137  -1.84109  -1.84101  -1.84071  -1.84060
  Beta  occ. eigenvalues --   -1.83964  -1.83921  -1.83884  -1.83877  -1.83863
  Beta  occ. eigenvalues --   -1.83832  -1.83808  -1.83797  -1.83789  -1.83695
  Beta  occ. eigenvalues --   -1.83683  -1.83676  -1.80668  -1.75979  -1.75829
  Beta  occ. eigenvalues --   -1.50200  -1.50180  -1.50162  -1.08614  -1.06988
  Beta  occ. eigenvalues --   -1.06944  -1.06899  -1.06021  -1.06006  -1.05983
  Beta  occ. eigenvalues --   -1.04588  -1.04577  -1.04567  -1.03994  -1.03984
  Beta  occ. eigenvalues --   -1.03657  -1.03349  -1.03306  -1.03291  -1.03033
  Beta  occ. eigenvalues --   -1.02998  -1.02255  -1.02217  -1.02212  -1.02095
  Beta  occ. eigenvalues --   -1.02009  -1.01972  -1.01907  -1.01884  -1.01773
  Beta  occ. eigenvalues --   -1.01765  -1.01746  -1.01623  -1.01580  -1.01556
  Beta  occ. eigenvalues --   -1.01308  -1.00785  -1.00757  -1.00699  -1.00692
  Beta  occ. eigenvalues --   -0.99880  -0.99824  -0.99778  -0.96433  -0.89967
  Beta  occ. eigenvalues --   -0.85648  -0.85624  -0.85614  -0.85493  -0.85475
  Beta  occ. eigenvalues --   -0.85468  -0.85467  -0.85465  -0.85423  -0.84667
  Beta  occ. eigenvalues --   -0.84367  -0.82710  -0.72195  -0.69753  -0.65330
  Beta  occ. eigenvalues --   -0.62343  -0.61733  -0.61665  -0.61640  -0.60815
  Beta  occ. eigenvalues --   -0.58980  -0.58963  -0.58942  -0.58808  -0.58800
  Beta  occ. eigenvalues --   -0.58771  -0.58753  -0.58692  -0.58563  -0.57357
  Beta  occ. eigenvalues --   -0.57211  -0.57164  -0.57020  -0.56932  -0.56512
  Beta  occ. eigenvalues --   -0.56430  -0.56387  -0.55844  -0.55633  -0.55347
  Beta  occ. eigenvalues --   -0.55338  -0.55321  -0.54661  -0.54155  -0.54128
  Beta  occ. eigenvalues --   -0.53950  -0.53687  -0.53645  -0.53614  -0.52812
  Beta  occ. eigenvalues --   -0.52662  -0.52597  -0.52486  -0.52461  -0.51467
  Beta  occ. eigenvalues --   -0.51454  -0.51445  -0.51319  -0.51249  -0.50995
  Beta  occ. eigenvalues --   -0.50568  -0.50479  -0.50468  -0.50341  -0.50248
  Beta  occ. eigenvalues --   -0.50170  -0.50036  -0.50024  -0.49962  -0.49695
  Beta  occ. eigenvalues --   -0.49630  -0.49576  -0.49497  -0.49476  -0.49281
  Beta  occ. eigenvalues --   -0.49213  -0.49199  -0.49116  -0.49084  -0.49004
  Beta  occ. eigenvalues --   -0.48706  -0.48548  -0.48529  -0.48459  -0.47832
  Beta  occ. eigenvalues --   -0.47610  -0.47575  -0.46051  -0.45907  -0.45873
  Beta  occ. eigenvalues --   -0.45817  -0.45674  -0.45572  -0.45225  -0.45166
  Beta  occ. eigenvalues --   -0.45151  -0.45053  -0.44782  -0.44583  -0.44473
  Beta  occ. eigenvalues --   -0.44424  -0.44415  -0.44278  -0.44196  -0.44169
  Beta  occ. eigenvalues --   -0.43459  -0.43218  -0.42493  -0.42456  -0.42407
  Beta  occ. eigenvalues --   -0.42297  -0.42254  -0.42144  -0.42130  -0.41628
  Beta  occ. eigenvalues --   -0.41606  -0.41572  -0.41395  -0.41042  -0.40946
  Beta  occ. eigenvalues --   -0.40754  -0.40702  -0.40674  -0.40357  -0.40344
  Beta  occ. eigenvalues --   -0.40309  -0.40159  -0.40148  -0.40136  -0.39803
  Beta  occ. eigenvalues --   -0.39619  -0.39367  -0.39168  -0.39088  -0.39083
  Beta  occ. eigenvalues --   -0.38896  -0.38845  -0.38810  -0.38748  -0.38702
  Beta  occ. eigenvalues --   -0.38650  -0.38302  -0.38270  -0.38223  -0.37678
  Beta  occ. eigenvalues --   -0.37217  -0.37176  -0.35692  -0.35647  -0.33948
  Beta  occ. eigenvalues --   -0.30883
  Beta virt. eigenvalues --   -0.06395  -0.06336  -0.04887  -0.04852  -0.04755
  Beta virt. eigenvalues --   -0.01513  -0.01410  -0.01371  -0.01153  -0.00919
  Beta virt. eigenvalues --   -0.00916  -0.00881  -0.00150  -0.00080  -0.00043

 Mulliken charges and spin densities:
               1          2
     1  Cl  -0.349569  -0.606102
     2  C   -0.035151  -0.096756
     3  C    0.012368   0.057963
     4  C   -0.034879  -0.092644
     5  C   -0.031487   0.059034
     6  C    0.007814  -0.116537
     7  C   -0.047787   0.059128
     8  H    0.050962   0.004224
     9  H    0.050871   0.003973
    10  H    0.056079  -0.002107
    11  H    0.057124   0.005118
    12  H    0.054627  -0.002079
    13  C    0.006324  -0.263512
    14  C   -0.044184  -0.018213
    15  H    0.076940   0.010838
    16  H    0.094958   0.001266
    17  H    0.087960  -0.001930
    18  O   -0.672814  -0.000568
    19  O   -0.672214  -0.000531
    20  O   -0.666662  -0.001614
    21  O   -0.673317  -0.000542
    22  W    1.718270   0.000358
    23  W    1.663258   0.000483
    24  W    1.674930   0.000168
    25  W    1.683715   0.000215
    26  W    1.664171   0.002701
    27  W    1.711399   0.002431
    28  W    1.612568   0.003346
    29  W    1.674232   0.002783
    30  O   -0.350051  -0.000528
    31  O   -0.394194  -0.000572
    32  O   -0.396307  -0.000613
    33  O   -0.388805  -0.000571
    34  O   -0.673056  -0.000278
    35  O   -0.678746  -0.000019
    36  O   -0.670868  -0.000124
    37  O   -0.673546  -0.000188
    38  O   -0.397850   0.002115
    39  O   -0.395005   0.002151
    40  O   -0.340399   0.000214
    41  O   -0.395218   0.002120
    42  O   -0.678373   0.000030
    43  O   -0.672984   0.000131
    44  O   -0.669603   0.000252
    45  O   -0.674553   0.000077
    46  O   -0.398257   0.002267
    47  O   -0.352145   0.002147
    48  O   -0.395028   0.001811
    49  O   -0.392343   0.002303
    50  W    1.661059   0.002789
    51  W    1.666898   0.002685
    52  W    1.677961   0.003930
    53  W    1.672591   0.002636
    54  O   -0.724274   0.000111
    55  O   -0.707050   0.000019
    56  O   -0.723124   0.000159
    57  O   -0.722067   0.000073
    58  O   -0.704572   0.000069
    59  O   -0.724832   0.000154
    60  O   -0.723701   0.000208
    61  O   -0.719319   0.000196
    62  O   -0.724140  -0.000186
    63  O   -0.706961  -0.000060
    64  O   -0.724868  -0.000207
    65  O   -0.724985  -0.000208
    66  O   -0.884819   0.005301
    67  O   -0.884870   0.007297
    68  O   -0.881902   0.007089
    69  O   -0.890324   0.006426
    70  K    0.849762   0.000192
    71  K    0.849275   0.000214
    72  K    0.846749   0.000214
    73  V    1.204337   0.937282
 Sum of Mulliken charges =  -1.00000  -0.00000

 Dipole moment (field-independent basis, Debye):
    X=             28.1056    Y=            -13.6208    Z=            -30.6448  Tot=             43.7557
 Quadrupole moment (field-independent basis, Debye-Ang):
   XX=           -759.0493   YY=           -711.3738   ZZ=           -780.4726
   XY=            126.4793   XZ=            174.1304   YZ=            -92.2162

 Normal termination of Gaussian 16 at Sun Jun  2 21:07:08 2024.
