 Gaussian 16, Revision C.01,
 Gaussian 16:  ES64L-G16RevC.01  3-Jul-2019

 ----------------------------------------------------------------------
 # def2svp wb97xd scrf=(smd,solvent=acetonitrile) g09default scf=(xqc,m
 axcycle=64) force guess=read nosymm
 ----------------------------------------------------------------------

 ----------
 Title Card
 ----------
 Symbolic Z-matrix:
 Charge = -1 Multiplicity = 1

                          Input orientation:
 ---------------------------------------------------------------------
 Center     Atomic      Atomic             Coordinates (Angstroms)
 Number     Number       Type             X           Y           Z
 ---------------------------------------------------------------------
      1         17           0       -9.641614    8.269464   10.540114
      2          6           0       -8.350589    4.256587   12.211379
      3          6           0       -9.145386    3.934238   11.095137
      4          6           0      -10.059124    2.870972   11.216144
      5          6           0      -10.206825    2.183973   12.416342
      6          6           0       -9.430826    2.534075   13.522426
      7          6           0       -8.493702    3.563753   13.409747
      8          1           0       -7.610856    5.057570   12.143245
      9          1           0      -10.669067    2.596152   10.351018
     10          1           0      -10.930407    1.368622   12.489723
     11          1           0       -9.544864    1.996193   14.465997
     12          1           0       -7.871167    3.830829   14.267539
     13          6           0       -9.088446    4.676716    9.835118
     14          6           0       -8.423080    5.830991    9.621247
     15          1           0       -9.675856    4.249163    9.014724
     16          1           0       -8.446487    6.311588    8.642311
     17          1           0       -7.792568    6.296872   10.377861
     18          8           0       -0.975264   -1.805457    7.463675
     19          8           0       -8.385452   -1.331302    7.462119
     20          8           0       -7.016570    1.344979   10.475522
     21          8           0       -2.334528   -4.398342   10.555128
     22         74           0       -3.396219    0.694701    6.482503
     23         74           0       -5.988981   -3.824376    6.559326
     24         74           0       -3.605312    0.870307   11.412641
     25         74           0       -5.762525   -3.869916   11.481691
     26         74           0       -2.431594   -2.591022    6.398770
     27         74           0       -6.930880   -0.536601    6.366241
     28         74           0       -6.809820   -0.253275   11.565489
     29         74           0       -2.545340   -2.741521   11.606112
     30          8           0       -3.160959    1.879029    5.303093
     31          8           0       -6.123410   -5.074499    5.417000
     32          8           0       -2.676787    1.709356   12.562679
     33          8           0       -6.681138   -4.672118   12.663509
     34          8           0       -2.659988   -0.916267    5.588843
     35          8           0       -6.698539   -2.270867    5.620310
     36          8           0       -5.299728    0.548302   12.358630
     37          8           0       -4.050503   -3.536862   12.408537
     38          8           0        0.319672   -0.027126    9.276341
     39          8           0       -9.690330   -3.039262    9.323049
     40          8           0       -6.348048    3.426973    8.665580
     41          8           0       -3.008505   -6.495431    8.744200
     42          8           0       -1.774183    0.741663    7.473462
     43          8           0       -7.596729   -3.883108    7.541722
     44          8           0       -4.486703    2.194574   10.424986
     45          8           0       -4.872107   -5.235699   10.529748
     46          8           0       -1.602243   -3.529671    5.249219
     47          8           0       -7.807058    0.273174    5.171807
     48          8           0       -8.029135   -0.163098   12.744379
     49          8           0       -1.312559   -2.862969   12.768884
     50         74           0       -1.240036   -0.543026    8.839003
     51         74           0       -8.130001   -2.537092    8.873534
     52         74           0       -5.872067    1.855088    9.043817
     53         74           0       -3.492813   -4.921099    9.163050
     54          8           0       -4.212587   -3.116330    6.072690
     55          8           0       -5.145144   -0.062145    6.018642
     56          8           0       -6.166319   -2.002716   11.912244
     57          8           0       -3.169852   -0.992757   11.916106
     58          8           0       -4.347490    1.579105    7.836422
     59          8           0       -5.008912   -4.687295    7.924611
     60          8           0       -2.313747    0.561782   10.075509
     61          8           0       -7.044220   -3.616691   10.130688
     62          8           0       -2.571422   -3.911103    7.867083
     63          8           0       -6.804233    0.792324    7.802346
     64          8           0       -7.819161   -1.178829   10.143155
     65          8           0       -1.550348   -1.877170   10.141259
     66          8           0       -3.351709   -1.161880    8.013091
     67          8           0       -6.012003   -1.963488    8.033837
     68          8           0       -5.109760   -0.212056    9.942230
     69          8           0       -4.236981   -2.851177    9.976122
     70         19           0       -3.214901   -6.134332    5.647966
     71         19           0       -0.119626    0.036023   12.324542
     72         19           0       -9.283422   -2.821648   12.422721
     73         23           0       -4.679694   -1.543921    8.989942
 ---------------------------------------------------------------------

 SCF Done:  E(RwB97XD) =  -7327.70190605     A.U. after   11 cycles

 Alpha  occ. eigenvalues -- -197.29425-130.00094-130.00068-129.99987-101.48374
 Alpha  occ. eigenvalues --  -22.62551 -19.33622 -19.33616 -19.33612 -19.33590
 Alpha  occ. eigenvalues --  -19.30729 -19.30693 -19.30690 -19.30682 -19.30678
 Alpha  occ. eigenvalues --  -19.30674 -19.30664 -19.30637 -19.30568 -19.30367
 Alpha  occ. eigenvalues --  -19.30347 -19.30176 -19.29321 -19.29318 -19.29298
 Alpha  occ. eigenvalues --  -19.29282 -19.29269 -19.29266 -19.29236 -19.29213
 Alpha  occ. eigenvalues --  -19.29206 -19.29177 -19.29174 -19.29150 -19.29137
 Alpha  occ. eigenvalues --  -19.29100 -19.29097 -19.29093 -19.29092 -19.29066
 Alpha  occ. eigenvalues --  -19.29061 -19.29021 -19.28994 -19.28970 -19.28947
 Alpha  occ. eigenvalues --  -19.28865 -19.11507 -19.11500 -19.11491 -13.37497
 Alpha  occ. eigenvalues --  -13.37470 -13.37384 -10.70427 -10.70420 -10.70419
 Alpha  occ. eigenvalues --  -10.70400 -10.70393 -10.70391 -10.70315 -10.70308
 Alpha  occ. eigenvalues --  -10.70302 -10.29831 -10.29333 -10.29278 -10.29043
 Alpha  occ. eigenvalues --  -10.28948 -10.28938 -10.28064 -10.27458  -9.38850
 Alpha  occ. eigenvalues --   -7.13677  -7.13627  -7.13620  -3.23322  -3.23320
 Alpha  occ. eigenvalues --   -3.23303  -3.23299  -3.23293  -3.23275  -3.23260
 Alpha  occ. eigenvalues --   -3.23258  -3.23229  -3.22978  -3.22960  -3.22782
 Alpha  occ. eigenvalues --   -2.91798  -1.94181  -1.94148  -1.94136  -1.87722
 Alpha  occ. eigenvalues --   -1.87679  -1.87662  -1.87633  -1.87493  -1.87474
 Alpha  occ. eigenvalues --   -1.87469  -1.87453  -1.87431  -1.87277  -1.87248
 Alpha  occ. eigenvalues --   -1.87097  -1.86630  -1.86512  -1.86502  -1.86485
 Alpha  occ. eigenvalues --   -1.86459  -1.86438  -1.86347  -1.86335  -1.86319
 Alpha  occ. eigenvalues --   -1.86300  -1.86293  -1.86265  -1.86150  -1.86138
 Alpha  occ. eigenvalues --   -1.86126  -1.86117  -1.86045  -1.86030  -1.85992
 Alpha  occ. eigenvalues --   -1.85923  -1.85906  -1.85806  -1.85717  -1.85669
 Alpha  occ. eigenvalues --   -1.51188  -1.51161  -1.51081  -1.13055  -1.11283
 Alpha  occ. eigenvalues --   -1.11199  -1.11197  -1.08967  -1.08532  -1.08493
 Alpha  occ. eigenvalues --   -1.08325  -1.07567  -1.07506  -1.07497  -1.06904
 Alpha  occ. eigenvalues --   -1.06895  -1.06876  -1.06328  -1.06307  -1.05323
 Alpha  occ. eigenvalues --   -1.05315  -1.04984  -1.04980  -1.04969  -1.04199
 Alpha  occ. eigenvalues --   -1.04189  -1.04176  -1.04033  -1.04012  -1.04002
 Alpha  occ. eigenvalues --   -1.03944  -1.03922  -1.03900  -1.03767  -1.03745
 Alpha  occ. eigenvalues --   -1.03621  -1.03559  -1.03303  -1.03267  -1.03122
 Alpha  occ. eigenvalues --   -1.03111  -1.03034  -1.02968  -0.94357  -0.86657
 Alpha  occ. eigenvalues --   -0.86635  -0.86558  -0.86481  -0.86463  -0.86462
 Alpha  occ. eigenvalues --   -0.86441  -0.86426  -0.86371  -0.86334  -0.82799
 Alpha  occ. eigenvalues --   -0.79723  -0.71636  -0.69645  -0.67986  -0.64619
 Alpha  occ. eigenvalues --   -0.63994  -0.63915  -0.63901  -0.63314  -0.63296
 Alpha  occ. eigenvalues --   -0.63174  -0.62911  -0.62678  -0.62605  -0.61994
 Alpha  occ. eigenvalues --   -0.61624  -0.61609  -0.61515  -0.61259  -0.61248
 Alpha  occ. eigenvalues --   -0.61183  -0.60420  -0.59486  -0.59463  -0.59453
 Alpha  occ. eigenvalues --   -0.59415  -0.59369  -0.58570  -0.58007  -0.57975
 Alpha  occ. eigenvalues --   -0.57888  -0.57067  -0.57033  -0.57006  -0.56295
 Alpha  occ. eigenvalues --   -0.56276  -0.56122  -0.55705  -0.54864  -0.54813
 Alpha  occ. eigenvalues --   -0.54770  -0.54512  -0.54244  -0.54113  -0.54102
 Alpha  occ. eigenvalues --   -0.54024  -0.53963  -0.53245  -0.53209  -0.53078
 Alpha  occ. eigenvalues --   -0.53043  -0.52906  -0.52714  -0.52680  -0.52644
 Alpha  occ. eigenvalues --   -0.52614  -0.52511  -0.52470  -0.52413  -0.51616
 Alpha  occ. eigenvalues --   -0.51600  -0.51331  -0.51313  -0.51268  -0.51229
 Alpha  occ. eigenvalues --   -0.51176  -0.51163  -0.50928  -0.50773  -0.50599
 Alpha  occ. eigenvalues --   -0.50580  -0.50573  -0.49883  -0.49880  -0.49301
 Alpha  occ. eigenvalues --   -0.49274  -0.49241  -0.49214  -0.49165  -0.49080
 Alpha  occ. eigenvalues --   -0.48898  -0.48078  -0.48030  -0.47922  -0.47655
 Alpha  occ. eigenvalues --   -0.47389  -0.47293  -0.47250  -0.46997  -0.46943
 Alpha  occ. eigenvalues --   -0.46823  -0.46550  -0.46504  -0.46495  -0.46192
 Alpha  occ. eigenvalues --   -0.46143  -0.46105  -0.45590  -0.45105  -0.44923
 Alpha  occ. eigenvalues --   -0.44881  -0.44214  -0.44145  -0.44035  -0.43493
 Alpha  occ. eigenvalues --   -0.43289  -0.43237  -0.43121  -0.43107  -0.43075
 Alpha  occ. eigenvalues --   -0.42712  -0.42690  -0.42664  -0.42594  -0.42585
 Alpha  occ. eigenvalues --   -0.42503  -0.42471  -0.42450  -0.42293  -0.42276
 Alpha  occ. eigenvalues --   -0.42260  -0.42030  -0.41918  -0.41864  -0.41846
 Alpha  occ. eigenvalues --   -0.41174  -0.41168  -0.41128  -0.41027  -0.40551
 Alpha  occ. eigenvalues --   -0.40528  -0.40511  -0.40373  -0.39443  -0.39439
 Alpha  occ. eigenvalues --   -0.36978  -0.32543  -0.29184  -0.25152  -0.25125
 Alpha  occ. eigenvalues --   -0.23530
 Alpha virt. eigenvalues --   -0.09444  -0.09229  -0.08515  -0.08456  -0.07035
 Alpha virt. eigenvalues --   -0.07013  -0.06932  -0.04452  -0.04148  -0.04102
 Alpha virt. eigenvalues --   -0.03719  -0.03490  -0.03442  -0.03239  -0.03139

 Mulliken charges:
               1
     1  Cl  -0.892587
     2  C   -0.080574
     3  C    0.049119
     4  C   -0.079727
     5  C   -0.033726
     6  C   -0.033895
     7  C   -0.049629
     8  H    0.030094
     9  H    0.029075
    10  H    0.040938
    11  H    0.036767
    12  H    0.039789
    13  C   -0.124775
    14  C    0.025178
    15  H    0.020697
    16  H    0.036030
    17  H    0.024661
    18  O   -0.663808
    19  O   -0.663232
    20  O   -0.655327
    21  O   -0.664242
    22  W    1.734713
    23  W    1.677281
    24  W    1.687417
    25  W    1.697640
    26  W    1.677675
    27  W    1.728993
    28  W    1.620204
    29  W    1.688448
    30  O   -0.320247
    31  O   -0.365789
    32  O   -0.367830
    33  O   -0.359982
    34  O   -0.664564
    35  O   -0.671195
    36  O   -0.661655
    37  O   -0.664446
    38  O   -0.367969
    39  O   -0.364953
    40  O   -0.297562
    41  O   -0.365004
    42  O   -0.670613
    43  O   -0.664245
    44  O   -0.660862
    45  O   -0.666040
    46  O   -0.368087
    47  O   -0.320434
    48  O   -0.361701
    49  O   -0.362197
    50  W    1.674815
    51  W    1.681193
    52  W    1.684843
    53  W    1.687077
    54  O   -0.726383
    55  O   -0.708794
    56  O   -0.726409
    57  O   -0.724172
    58  O   -0.706549
    59  O   -0.727508
    60  O   -0.726224
    61  O   -0.721622
    62  O   -0.725678
    63  O   -0.708048
    64  O   -0.725896
    65  O   -0.726855
    66  O   -0.802360
    67  O   -0.801584
    68  O   -0.798781
    69  O   -0.810383
    70  K    0.863508
    71  K    0.862671
    72  K    0.860614
    73  V    1.194705
 Sum of Mulliken charges =  -1.00000

 Dipole moment (field-independent basis, Debye):
    X=             50.1937    Y=            -51.1069    Z=            -38.7873  Tot=             81.4603
 Quadrupole moment (field-independent basis, Debye-Ang):
   XX=          -1040.2851   YY=           -888.5193   ZZ=           -916.3562
   XY=            445.8824   XZ=            449.1533   YZ=           -476.4833

 Normal termination of Gaussian 16 at Sun Jun  2 21:52:03 2024.
