 Gaussian 16, Revision C.01,
 Gaussian 16:  ES64L-G16RevC.01  3-Jul-2019

 ----------------------------------------------------------------------
 # def2svp wb97xd scrf=(smd,solvent=acetonitrile) g09default scf=(xqc,m
 axcycle=64) force guess=read nosymm
 ----------------------------------------------------------------------

 ----------
 Title Card
 ----------
 Symbolic Z-matrix:
 Charge = -1 Multiplicity = 1

                          Input orientation:
 ---------------------------------------------------------------------
 Center     Atomic      Atomic             Coordinates (Angstroms)
 Number     Number       Type             X           Y           Z
 ---------------------------------------------------------------------
      1         17           0       -9.641614    8.269464   10.540114
      2          6           0       -8.350589    4.256587   12.211379
      3          6           0       -9.145386    3.934238   11.095137
      4          6           0      -10.059124    2.870972   11.216144
      5          6           0      -10.206825    2.183973   12.416342
      6          6           0       -9.430826    2.534075   13.522426
      7          6           0       -8.493702    3.563753   13.409747
      8          1           0       -7.610856    5.057570   12.143245
      9          1           0      -10.669067    2.596152   10.351018
     10          1           0      -10.930407    1.368622   12.489723
     11          1           0       -9.544864    1.996193   14.465997
     12          1           0       -7.871167    3.830829   14.267539
     13          6           0       -9.088446    4.676716    9.835118
     14          6           0       -8.423080    5.830991    9.621247
     15          1           0       -9.675856    4.249163    9.014724
     16          1           0       -8.446487    6.311588    8.642311
     17          1           0       -7.792568    6.296872   10.377861
     18          8           0       -0.975264   -1.805457    7.463675
     19          8           0       -8.385452   -1.331302    7.462119
     20          8           0       -7.016570    1.344979   10.475522
     21          8           0       -2.334528   -4.398342   10.555128
     22         74           0       -3.396219    0.694701    6.482503
     23         74           0       -5.988981   -3.824376    6.559326
     24         74           0       -3.605312    0.870307   11.412641
     25         74           0       -5.762525   -3.869916   11.481691
     26         74           0       -2.431594   -2.591022    6.398770
     27         74           0       -6.930880   -0.536601    6.366241
     28         74           0       -6.809820   -0.253275   11.565489
     29         74           0       -2.545340   -2.741521   11.606112
     30          8           0       -3.160959    1.879029    5.303093
     31          8           0       -6.123410   -5.074499    5.417000
     32          8           0       -2.676787    1.709356   12.562679
     33          8           0       -6.681138   -4.672118   12.663509
     34          8           0       -2.659988   -0.916267    5.588843
     35          8           0       -6.698539   -2.270867    5.620310
     36          8           0       -5.299728    0.548302   12.358630
     37          8           0       -4.050503   -3.536862   12.408537
     38          8           0        0.319672   -0.027126    9.276341
     39          8           0       -9.690330   -3.039262    9.323049
     40          8           0       -6.348048    3.426973    8.665580
     41          8           0       -3.008505   -6.495431    8.744200
     42          8           0       -1.774183    0.741663    7.473462
     43          8           0       -7.596729   -3.883108    7.541722
     44          8           0       -4.486703    2.194574   10.424986
     45          8           0       -4.872107   -5.235699   10.529748
     46          8           0       -1.602243   -3.529671    5.249219
     47          8           0       -7.807058    0.273174    5.171807
     48          8           0       -8.029135   -0.163098   12.744379
     49          8           0       -1.312559   -2.862969   12.768884
     50         74           0       -1.240036   -0.543026    8.839003
     51         74           0       -8.130001   -2.537092    8.873534
     52         74           0       -5.872067    1.855088    9.043817
     53         74           0       -3.492813   -4.921099    9.163050
     54          8           0       -4.212587   -3.116330    6.072690
     55          8           0       -5.145144   -0.062145    6.018642
     56          8           0       -6.166319   -2.002716   11.912244
     57          8           0       -3.169852   -0.992757   11.916106
     58          8           0       -4.347490    1.579105    7.836422
     59          8           0       -5.008912   -4.687295    7.924611
     60          8           0       -2.313747    0.561782   10.075509
     61          8           0       -7.044220   -3.616691   10.130688
     62          8           0       -2.571422   -3.911103    7.867083
     63          8           0       -6.804233    0.792324    7.802346
     64          8           0       -7.819161   -1.178829   10.143155
     65          8           0       -1.550348   -1.877170   10.141259
     66          8           0       -3.351709   -1.161880    8.013091
     67          8           0       -6.012003   -1.963488    8.033837
     68          8           0       -5.109760   -0.212056    9.942230
     69          8           0       -4.236981   -2.851177    9.976122
     70         19           0       -3.214901   -6.134332    5.647966
     71         19           0       -0.119626    0.036023   12.324542
     72         19           0       -9.283422   -2.821648   12.422721
     73         23           0       -4.679694   -1.543921    8.989942
 ---------------------------------------------------------------------

 SCF Done:  E(UwB97XD) =  -7327.70189763     A.U. after   35 cycles

 Alpha  occ. eigenvalues --  -19.24672 -18.94136 -18.93050 -18.93011 -13.36488
 Alpha  occ. eigenvalues --  -13.36477 -13.36452 -10.69415 -10.69411 -10.69409
 Alpha  occ. eigenvalues --  -10.69404 -10.69400 -10.69399 -10.69381 -10.69377
 Alpha  occ. eigenvalues --  -10.69371 -10.33027 -10.32207 -10.31988 -10.31039
 Alpha  occ. eigenvalues --  -10.31010 -10.30981 -10.30591 -10.30520  -9.52535
 Alpha  occ. eigenvalues --   -7.27418  -7.27077  -7.27073  -3.21126  -3.21103
 Alpha  occ. eigenvalues --   -3.21070  -3.21050  -3.21036  -3.21026  -3.21014
 Alpha  occ. eigenvalues --   -3.21012  -3.21003  -3.20873  -3.20870  -3.20841
 Alpha  occ. eigenvalues --   -2.78838  -1.85359  -1.85295  -1.85285  -1.85258
 Alpha  occ. eigenvalues --   -1.85152  -1.85080  -1.85063  -1.85046  -1.85034
 Alpha  occ. eigenvalues --   -1.85023  -1.85006  -1.84953  -1.84398  -1.84286
 Alpha  occ. eigenvalues --   -1.84273  -1.84256  -1.84223  -1.84212  -1.84155
 Alpha  occ. eigenvalues --   -1.84139  -1.84112  -1.84104  -1.84074  -1.84063
 Alpha  occ. eigenvalues --   -1.83966  -1.83924  -1.83886  -1.83880  -1.83866
 Alpha  occ. eigenvalues --   -1.83835  -1.83811  -1.83799  -1.83792  -1.83697
 Alpha  occ. eigenvalues --   -1.83686  -1.83678  -1.81997  -1.81658  -1.81636
 Alpha  occ. eigenvalues --   -1.50194  -1.50182  -1.50163  -1.08631  -1.07009
 Alpha  occ. eigenvalues --   -1.06965  -1.06925  -1.06023  -1.06008  -1.05985
 Alpha  occ. eigenvalues --   -1.04587  -1.04577  -1.04569  -1.03991  -1.03984
 Alpha  occ. eigenvalues --   -1.03721  -1.03380  -1.03345  -1.03324  -1.03035
 Alpha  occ. eigenvalues --   -1.03008  -1.02274  -1.02240  -1.02231  -1.02105
 Alpha  occ. eigenvalues --   -1.02015  -1.01988  -1.01913  -1.01899  -1.01779
 Alpha  occ. eigenvalues --   -1.01768  -1.01750  -1.01626  -1.01582  -1.01573
 Alpha  occ. eigenvalues --   -1.01310  -1.00823  -1.00762  -1.00702  -1.00694
 Alpha  occ. eigenvalues --   -1.00012  -0.99960  -0.99895  -0.96207  -0.89301
 Alpha  occ. eigenvalues --   -0.85643  -0.85626  -0.85616  -0.85488  -0.85471
 Alpha  occ. eigenvalues --   -0.85470  -0.85469  -0.85468  -0.85425  -0.84290
 Alpha  occ. eigenvalues --   -0.82509  -0.81025  -0.71940  -0.69631  -0.65082
 Alpha  occ. eigenvalues --   -0.62343  -0.61733  -0.61665  -0.61640  -0.60607
 Alpha  occ. eigenvalues --   -0.58984  -0.58965  -0.58945  -0.58891  -0.58821
 Alpha  occ. eigenvalues --   -0.58805  -0.58780  -0.58739  -0.58562  -0.57394
 Alpha  occ. eigenvalues --   -0.57351  -0.57329  -0.57039  -0.56783  -0.56509
 Alpha  occ. eigenvalues --   -0.56461  -0.56423  -0.56035  -0.55886  -0.55368
 Alpha  occ. eigenvalues --   -0.55357  -0.55319  -0.54449  -0.54164  -0.54139
 Alpha  occ. eigenvalues --   -0.53963  -0.53719  -0.53669  -0.53658  -0.52749
 Alpha  occ. eigenvalues --   -0.52656  -0.52611  -0.52506  -0.52466  -0.51487
 Alpha  occ. eigenvalues --   -0.51481  -0.51459  -0.51376  -0.51322  -0.50798
 Alpha  occ. eigenvalues --   -0.50573  -0.50535  -0.50490  -0.50410  -0.50341
 Alpha  occ. eigenvalues --   -0.50285  -0.50067  -0.50029  -0.50000  -0.49749
 Alpha  occ. eigenvalues --   -0.49656  -0.49615  -0.49509  -0.49489  -0.49282
 Alpha  occ. eigenvalues --   -0.49236  -0.49201  -0.49141  -0.49096  -0.49023
 Alpha  occ. eigenvalues --   -0.48714  -0.48554  -0.48530  -0.48466  -0.47663
 Alpha  occ. eigenvalues --   -0.47644  -0.47165  -0.46482  -0.46048  -0.46028
 Alpha  occ. eigenvalues --   -0.45884  -0.45857  -0.45757  -0.45629  -0.45226
 Alpha  occ. eigenvalues --   -0.45151  -0.45146  -0.44787  -0.44588  -0.44491
 Alpha  occ. eigenvalues --   -0.44476  -0.44441  -0.44298  -0.44221  -0.44192
 Alpha  occ. eigenvalues --   -0.43463  -0.43122  -0.42547  -0.42515  -0.42438
 Alpha  occ. eigenvalues --   -0.42332  -0.42209  -0.42178  -0.42168  -0.41641
 Alpha  occ. eigenvalues --   -0.41625  -0.41593  -0.41037  -0.40989  -0.40777
 Alpha  occ. eigenvalues --   -0.40764  -0.40738  -0.40375  -0.40357  -0.40327
 Alpha  occ. eigenvalues --   -0.40207  -0.40174  -0.40163  -0.40124  -0.39862
 Alpha  occ. eigenvalues --   -0.39367  -0.39263  -0.39232  -0.39132  -0.39056
 Alpha  occ. eigenvalues --   -0.38908  -0.38879  -0.38806  -0.38762  -0.38699
 Alpha  occ. eigenvalues --   -0.38308  -0.38277  -0.38231  -0.38048  -0.37215
 Alpha  occ. eigenvalues --   -0.37184  -0.34742  -0.34703  -0.33669  -0.30418
 Alpha  occ. eigenvalues --   -0.25812
 Alpha virt. eigenvalues --   -0.12053  -0.06390  -0.06330  -0.04883  -0.04847
 Alpha virt. eigenvalues --   -0.04753  -0.01518  -0.01414  -0.01376  -0.01156
 Alpha virt. eigenvalues --   -0.00923  -0.00922  -0.00883  -0.00161  -0.00092

  Beta  occ. eigenvalues -- -197.10878-129.99079-129.99068-129.99050-101.62525
  Beta  occ. eigenvalues --  -22.43298 -19.28541 -19.28511 -19.28452 -19.28429
  Beta  occ. eigenvalues --  -19.28396 -19.28375 -19.28361 -19.28357 -19.28350
  Beta  occ. eigenvalues --  -19.28273 -19.28256 -19.28167 -19.26947 -19.26924
  Beta  occ. eigenvalues --  -19.26918 -19.26862 -19.26853 -19.26839 -19.26838
  Beta  occ. eigenvalues --  -19.26838 -19.26820 -19.26815 -19.26810 -19.26793
  Beta  occ. eigenvalues --  -19.26788 -19.26783 -19.26774 -19.26770 -19.26765
  Beta  occ. eigenvalues --  -19.26759 -19.26753 -19.26739 -19.26728 -19.26718
  Beta  occ. eigenvalues --  -19.26655 -19.26623 -19.24735 -19.24701 -19.24674
  Beta  occ. eigenvalues --  -19.24647 -18.93791 -18.91606 -18.91529 -13.36488
  Beta  occ. eigenvalues --  -13.36477 -13.36452 -10.69415 -10.69411 -10.69409
  Beta  occ. eigenvalues --  -10.69404 -10.69400 -10.69399 -10.69381 -10.69377
  Beta  occ. eigenvalues --  -10.69371 -10.33309 -10.32322 -10.31937 -10.31144
  Beta  occ. eigenvalues --  -10.31135 -10.31083 -10.30532 -10.30461  -9.52983
  Beta  occ. eigenvalues --   -7.28826  -7.27384  -7.27379  -3.21126  -3.21097
  Beta  occ. eigenvalues --   -3.21070  -3.21044  -3.21036  -3.21020  -3.21008
  Beta  occ. eigenvalues --   -3.21006  -3.20997  -3.20870  -3.20867  -3.20836
  Beta  occ. eigenvalues --   -2.74775  -1.85354  -1.85290  -1.85280  -1.85250
  Beta  occ. eigenvalues --   -1.85146  -1.85074  -1.85059  -1.85039  -1.85025
  Beta  occ. eigenvalues --   -1.85013  -1.85001  -1.84945  -1.84395  -1.84284
  Beta  occ. eigenvalues --   -1.84270  -1.84253  -1.84220  -1.84209  -1.84152
  Beta  occ. eigenvalues --   -1.84137  -1.84109  -1.84101  -1.84071  -1.84060
  Beta  occ. eigenvalues --   -1.83964  -1.83921  -1.83884  -1.83877  -1.83863
  Beta  occ. eigenvalues --   -1.83832  -1.83808  -1.83797  -1.83789  -1.83695
  Beta  occ. eigenvalues --   -1.83683  -1.83676  -1.80658  -1.75980  -1.75811
  Beta  occ. eigenvalues --   -1.50194  -1.50182  -1.50163  -1.08614  -1.06988
  Beta  occ. eigenvalues --   -1.06944  -1.06898  -1.06021  -1.06006  -1.05983
  Beta  occ. eigenvalues --   -1.04588  -1.04578  -1.04567  -1.03993  -1.03984
  Beta  occ. eigenvalues --   -1.03655  -1.03348  -1.03305  -1.03291  -1.03034
  Beta  occ. eigenvalues --   -1.03000  -1.02256  -1.02217  -1.02211  -1.02096
  Beta  occ. eigenvalues --   -1.02010  -1.01975  -1.01908  -1.01885  -1.01775
  Beta  occ. eigenvalues --   -1.01766  -1.01747  -1.01622  -1.01580  -1.01557
  Beta  occ. eigenvalues --   -1.01310  -1.00785  -1.00758  -1.00701  -1.00694
  Beta  occ. eigenvalues --   -0.99878  -0.99821  -0.99775  -0.96438  -0.89976
  Beta  occ. eigenvalues --   -0.85643  -0.85626  -0.85616  -0.85487  -0.85471
  Beta  occ. eigenvalues --   -0.85470  -0.85469  -0.85468  -0.85425  -0.84653
  Beta  occ. eigenvalues --   -0.84370  -0.82710  -0.72200  -0.69754  -0.65335
  Beta  occ. eigenvalues --   -0.62343  -0.61733  -0.61665  -0.61639  -0.60822
  Beta  occ. eigenvalues --   -0.58980  -0.58963  -0.58944  -0.58808  -0.58799
  Beta  occ. eigenvalues --   -0.58769  -0.58752  -0.58692  -0.58563  -0.57355
  Beta  occ. eigenvalues --   -0.57210  -0.57161  -0.57023  -0.56934  -0.56511
  Beta  occ. eigenvalues --   -0.56430  -0.56387  -0.55842  -0.55631  -0.55347
  Beta  occ. eigenvalues --   -0.55338  -0.55321  -0.54660  -0.54156  -0.54130
  Beta  occ. eigenvalues --   -0.53953  -0.53686  -0.53643  -0.53612  -0.52816
  Beta  occ. eigenvalues --   -0.52663  -0.52598  -0.52487  -0.52461  -0.51468
  Beta  occ. eigenvalues --   -0.51455  -0.51446  -0.51321  -0.51252  -0.50999
  Beta  occ. eigenvalues --   -0.50570  -0.50479  -0.50469  -0.50342  -0.50248
  Beta  occ. eigenvalues --   -0.50172  -0.50038  -0.50025  -0.49965  -0.49697
  Beta  occ. eigenvalues --   -0.49632  -0.49579  -0.49499  -0.49478  -0.49281
  Beta  occ. eigenvalues --   -0.49215  -0.49200  -0.49114  -0.49082  -0.49002
  Beta  occ. eigenvalues --   -0.48708  -0.48550  -0.48531  -0.48460  -0.47839
  Beta  occ. eigenvalues --   -0.47614  -0.47578  -0.46053  -0.45908  -0.45874
  Beta  occ. eigenvalues --   -0.45817  -0.45675  -0.45572  -0.45226  -0.45167
  Beta  occ. eigenvalues --   -0.45152  -0.45054  -0.44786  -0.44587  -0.44473
  Beta  occ. eigenvalues --   -0.44424  -0.44417  -0.44278  -0.44199  -0.44172
  Beta  occ. eigenvalues --   -0.43457  -0.43226  -0.42495  -0.42457  -0.42409
  Beta  occ. eigenvalues --   -0.42297  -0.42253  -0.42143  -0.42130  -0.41629
  Beta  occ. eigenvalues --   -0.41607  -0.41572  -0.41399  -0.41043  -0.40947
  Beta  occ. eigenvalues --   -0.40755  -0.40705  -0.40677  -0.40361  -0.40347
  Beta  occ. eigenvalues --   -0.40312  -0.40161  -0.40150  -0.40138  -0.39805
  Beta  occ. eigenvalues --   -0.39621  -0.39366  -0.39169  -0.39089  -0.39084
  Beta  occ. eigenvalues --   -0.38898  -0.38848  -0.38811  -0.38747  -0.38702
  Beta  occ. eigenvalues --   -0.38651  -0.38303  -0.38272  -0.38227  -0.37665
  Beta  occ. eigenvalues --   -0.37217  -0.37178  -0.35676  -0.35631  -0.33955
  Beta  occ. eigenvalues --   -0.30880
  Beta virt. eigenvalues --   -0.06389  -0.06330  -0.04882  -0.04846  -0.04752
  Beta virt. eigenvalues --   -0.01513  -0.01410  -0.01371  -0.01150  -0.00918
  Beta virt. eigenvalues --   -0.00917  -0.00879  -0.00150  -0.00080  -0.00043

 Mulliken charges and spin densities:
               1          2
     1  Cl  -0.350391  -0.605037
     2  C   -0.035164  -0.097085
     3  C    0.012300   0.058234
     4  C   -0.034891  -0.092946
     5  C   -0.031496   0.059244
     6  C    0.007966  -0.116960
     7  C   -0.047749   0.059330
     8  H    0.050947   0.004234
     9  H    0.050880   0.003986
    10  H    0.056067  -0.002115
    11  H    0.057136   0.005135
    12  H    0.054651  -0.002085
    13  C    0.006496  -0.264468
    14  C   -0.043787  -0.017957
    15  H    0.076969   0.010866
    16  H    0.094933   0.001226
    17  H    0.088116  -0.001950
    18  O   -0.672768  -0.000568
    19  O   -0.672055  -0.000530
    20  O   -0.666604  -0.001609
    21  O   -0.673281  -0.000542
    22  W    1.717974   0.000358
    23  W    1.662976   0.000483
    24  W    1.674714   0.000168
    25  W    1.683487   0.000215
    26  W    1.664015   0.002700
    27  W    1.711191   0.002432
    28  W    1.612269   0.003344
    29  W    1.674000   0.002782
    30  O   -0.350137  -0.000528
    31  O   -0.394163  -0.000572
    32  O   -0.396267  -0.000613
    33  O   -0.388732  -0.000571
    34  O   -0.672885  -0.000278
    35  O   -0.678662  -0.000017
    36  O   -0.670775  -0.000122
    37  O   -0.673417  -0.000186
    38  O   -0.397807   0.002118
    39  O   -0.395104   0.002156
    40  O   -0.340559   0.000228
    41  O   -0.395074   0.002124
    42  O   -0.678290   0.000031
    43  O   -0.672929   0.000132
    44  O   -0.669418   0.000252
    45  O   -0.674515   0.000078
    46  O   -0.397992   0.002265
    47  O   -0.352112   0.002144
    48  O   -0.394920   0.001806
    49  O   -0.392347   0.002298
    50  W    1.660765   0.002796
    51  W    1.666705   0.002693
    52  W    1.677890   0.003939
    53  W    1.672343   0.002643
    54  O   -0.724251   0.000110
    55  O   -0.706899   0.000018
    56  O   -0.723047   0.000158
    57  O   -0.722016   0.000073
    58  O   -0.704378   0.000070
    59  O   -0.724702   0.000154
    60  O   -0.723681   0.000209
    61  O   -0.719185   0.000197
    62  O   -0.724084  -0.000185
    63  O   -0.706806  -0.000059
    64  O   -0.724923  -0.000206
    65  O   -0.724912  -0.000207
    66  O   -0.884694   0.005306
    67  O   -0.884773   0.007302
    68  O   -0.881861   0.007108
    69  O   -0.890205   0.006438
    70  K    0.849846   0.000192
    71  K    0.849145   0.000215
    72  K    0.846802   0.000214
    73  V    1.204123   0.937193
 Sum of Mulliken charges =  -1.00000   0.00000

 Dipole moment (field-independent basis, Debye):
    X=             28.0882    Y=            -13.6421    Z=            -30.6620  Tot=             43.7631
 Quadrupole moment (field-independent basis, Debye-Ang):
   XX=           -758.9066   YY=           -711.4455   ZZ=           -780.8386
   XY=            126.5256   XZ=            174.0052   YZ=            -92.3852

 Normal termination of Gaussian 16 at Sun Jun  2 21:41:40 2024.
