 Gaussian 16, Revision C.01,
 Gaussian 16:  ES64L-G16RevC.01  3-Jul-2019

 ----------------------------------------------------------------------
 # def2svp wb97xd scrf=(smd,solvent=acetonitrile) g09default scf=(xqc,m
 axcycle=64) force guess=read nosymm
 ----------------------------------------------------------------------

 ----------
 Title Card
 ----------
 Symbolic Z-matrix:
 Charge = -1 Multiplicity = 1

                          Input orientation:
 ---------------------------------------------------------------------
 Center     Atomic      Atomic             Coordinates (Angstroms)
 Number     Number       Type             X           Y           Z
 ---------------------------------------------------------------------
      1         17           0       -9.641168    8.268651   10.538991
      2          6           0       -8.352393    4.258451   12.210509
      3          6           0       -9.147235    3.935204   11.094607
      4          6           0      -10.061167    2.872263   11.216397
      5          6           0      -10.207024    2.184571   12.416511
      6          6           0       -9.428984    2.533596   13.521371
      7          6           0       -8.493515    3.564783   13.408690
      8          1           0       -7.614655    5.061242   12.142880
      9          1           0      -10.673087    2.598766   10.352269
     10          1           0      -10.931392    1.369967   12.490797
     11          1           0       -9.540317    1.994046   14.464352
     12          1           0       -7.871230    3.833029   14.266204
     13          6           0       -9.091298    4.678053    9.834802
     14          6           0       -8.425141    5.832031    9.622143
     15          1           0       -9.680278    4.251840    9.014805
     16          1           0       -8.450692    6.316332    8.645174
     17          1           0       -7.792038    6.294296   10.378820
     18          8           0       -0.975307   -1.806395    7.463092
     19          8           0       -8.384479   -1.330870    7.462161
     20          8           0       -7.015812    1.344341   10.476202
     21          8           0       -2.334446   -4.398353   10.555137
     22         74           0       -3.395023    0.695945    6.483860
     23         74           0       -5.989124   -3.825588    6.559832
     24         74           0       -3.604042    0.870824   11.411539
     25         74           0       -5.762997   -3.871241   11.481316
     26         74           0       -2.432395   -2.590552    6.397679
     27         74           0       -6.929243   -0.537198    6.365109
     28         74           0       -6.808296   -0.254055   11.566807
     29         74           0       -2.545943   -2.741889   11.607045
     30          8           0       -3.159509    1.880974    5.305371
     31          8           0       -6.123883   -5.075599    5.417359
     32          8           0       -2.675607    1.709744   12.561843
     33          8           0       -6.681158   -4.673953   12.662921
     34          8           0       -2.660395   -0.915931    5.588776
     35          8           0       -6.698114   -2.271447    5.620332
     36          8           0       -5.298144    0.547819   12.358545
     37          8           0       -4.050771   -3.537477   12.408655
     38          8           0        0.321167   -0.029412    9.275825
     39          8           0       -9.690254   -3.038128    9.322358
     40          8           0       -6.349241    3.426181    8.665971
     41          8           0       -3.007455   -6.495585    8.744329
     42          8           0       -1.773118    0.740876    7.473711
     43          8           0       -7.596704   -3.883076    7.542014
     44          8           0       -4.486056    2.194481   10.424759
     45          8           0       -4.871862   -5.236135   10.529412
     46          8           0       -1.602938   -3.528632    5.247452
     47          8           0       -7.805372    0.272032    5.170291
     48          8           0       -8.026996   -0.162524   12.746105
     49          8           0       -1.313901   -2.863550   12.770498
     50         74           0       -1.238875   -0.544998    8.839170
     51         74           0       -8.129936   -2.536190    8.873509
     52         74           0       -5.872924    1.854398    9.044024
     53         74           0       -3.491980   -4.921109    9.162812
     54          8           0       -4.212982   -3.116953    6.072329
     55          8           0       -5.144244   -0.061701    6.018685
     56          8           0       -6.166214   -2.003674   11.913254
     57          8           0       -3.169150   -0.992907   11.915587
     58          8           0       -4.346897    1.579193    7.837246
     59          8           0       -5.008982   -4.688413    7.924493
     60          8           0       -2.312118    0.561474   10.075284
     61          8           0       -7.044463   -3.617042   10.130924
     62          8           0       -2.571767   -3.911411    7.866426
     63          8           0       -6.803687    0.791945    7.802204
     64          8           0       -7.818547   -1.179075   10.144101
     65          8           0       -1.549269   -1.877933   10.141781
     66          8           0       -3.351279   -1.162164    8.013430
     67          8           0       -6.011301   -1.964031    8.033846
     68          8           0       -5.109014   -0.212400    9.942174
     69          8           0       -4.237103   -2.851498    9.976197
     70         19           0       -3.215392   -6.134801    5.648123
     71         19           0       -0.120867    0.033374   12.323239
     72         19           0       -9.283545   -2.820983   12.421434
     73         23           0       -4.679211   -1.544257    8.989982
 ---------------------------------------------------------------------

 SCF Done:  E(RwB97XD) =  -7327.70192420     A.U. after   11 cycles

 Alpha  occ. eigenvalues -- -197.29411-130.00094-130.00062-129.99991-101.48381
 Alpha  occ. eigenvalues --  -22.62539 -19.33620 -19.33610 -19.33608 -19.33586
 Alpha  occ. eigenvalues --  -19.30729 -19.30692 -19.30691 -19.30681 -19.30680
 Alpha  occ. eigenvalues --  -19.30670 -19.30666 -19.30641 -19.30570 -19.30369
 Alpha  occ. eigenvalues --  -19.30346 -19.30175 -19.29323 -19.29321 -19.29298
 Alpha  occ. eigenvalues --  -19.29285 -19.29271 -19.29268 -19.29239 -19.29218
 Alpha  occ. eigenvalues --  -19.29209 -19.29178 -19.29175 -19.29152 -19.29140
 Alpha  occ. eigenvalues --  -19.29103 -19.29098 -19.29096 -19.29093 -19.29068
 Alpha  occ. eigenvalues --  -19.29064 -19.29026 -19.28996 -19.28972 -19.28950
 Alpha  occ. eigenvalues --  -19.28866 -19.11495 -19.11487 -19.11479 -13.37497
 Alpha  occ. eigenvalues --  -13.37464 -13.37387 -10.70427 -10.70420 -10.70419
 Alpha  occ. eigenvalues --  -10.70394 -10.70387 -10.70385 -10.70318 -10.70311
 Alpha  occ. eigenvalues --  -10.70306 -10.29827 -10.29331 -10.29277 -10.29039
 Alpha  occ. eigenvalues --  -10.28943 -10.28935 -10.28062 -10.27447  -9.38857
 Alpha  occ. eigenvalues --   -7.13684  -7.13634  -7.13627  -3.23322  -3.23321
 Alpha  occ. eigenvalues --   -3.23303  -3.23298  -3.23293  -3.23273  -3.23259
 Alpha  occ. eigenvalues --   -3.23257  -3.23228  -3.22976  -3.22960  -3.22780
 Alpha  occ. eigenvalues --   -2.91790  -1.94174  -1.94141  -1.94129  -1.87722
 Alpha  occ. eigenvalues --   -1.87678  -1.87662  -1.87632  -1.87492  -1.87473
 Alpha  occ. eigenvalues --   -1.87470  -1.87454  -1.87431  -1.87278  -1.87248
 Alpha  occ. eigenvalues --   -1.87096  -1.86630  -1.86513  -1.86502  -1.86485
 Alpha  occ. eigenvalues --   -1.86459  -1.86438  -1.86347  -1.86335  -1.86319
 Alpha  occ. eigenvalues --   -1.86300  -1.86293  -1.86265  -1.86150  -1.86138
 Alpha  occ. eigenvalues --   -1.86125  -1.86116  -1.86044  -1.86030  -1.85992
 Alpha  occ. eigenvalues --   -1.85923  -1.85905  -1.85806  -1.85717  -1.85668
 Alpha  occ. eigenvalues --   -1.51188  -1.51156  -1.51085  -1.13051  -1.11280
 Alpha  occ. eigenvalues --   -1.11195  -1.11193  -1.08967  -1.08532  -1.08493
 Alpha  occ. eigenvalues --   -1.08325  -1.07566  -1.07505  -1.07496  -1.06904
 Alpha  occ. eigenvalues --   -1.06896  -1.06876  -1.06328  -1.06306  -1.05325
 Alpha  occ. eigenvalues --   -1.05317  -1.04985  -1.04981  -1.04969  -1.04200
 Alpha  occ. eigenvalues --   -1.04191  -1.04177  -1.04034  -1.04011  -1.04002
 Alpha  occ. eigenvalues --   -1.03945  -1.03923  -1.03900  -1.03766  -1.03747
 Alpha  occ. eigenvalues --   -1.03622  -1.03560  -1.03306  -1.03268  -1.03124
 Alpha  occ. eigenvalues --   -1.03113  -1.03037  -1.02969  -0.94356  -0.86657
 Alpha  occ. eigenvalues --   -0.86630  -0.86561  -0.86482  -0.86463  -0.86462
 Alpha  occ. eigenvalues --   -0.86436  -0.86421  -0.86374  -0.86338  -0.82798
 Alpha  occ. eigenvalues --   -0.79719  -0.71645  -0.69642  -0.67984  -0.64618
 Alpha  occ. eigenvalues --   -0.63993  -0.63915  -0.63901  -0.63312  -0.63292
 Alpha  occ. eigenvalues --   -0.63172  -0.62908  -0.62676  -0.62604  -0.61990
 Alpha  occ. eigenvalues --   -0.61622  -0.61607  -0.61513  -0.61259  -0.61247
 Alpha  occ. eigenvalues --   -0.61184  -0.60420  -0.59485  -0.59462  -0.59452
 Alpha  occ. eigenvalues --   -0.59414  -0.59368  -0.58571  -0.58007  -0.57975
 Alpha  occ. eigenvalues --   -0.57889  -0.57065  -0.57033  -0.57004  -0.56294
 Alpha  occ. eigenvalues --   -0.56276  -0.56121  -0.55706  -0.54865  -0.54813
 Alpha  occ. eigenvalues --   -0.54771  -0.54511  -0.54244  -0.54113  -0.54104
 Alpha  occ. eigenvalues --   -0.54025  -0.53963  -0.53246  -0.53212  -0.53079
 Alpha  occ. eigenvalues --   -0.53045  -0.52907  -0.52718  -0.52682  -0.52645
 Alpha  occ. eigenvalues --   -0.52616  -0.52511  -0.52470  -0.52408  -0.51617
 Alpha  occ. eigenvalues --   -0.51601  -0.51333  -0.51314  -0.51271  -0.51231
 Alpha  occ. eigenvalues --   -0.51176  -0.51164  -0.50930  -0.50775  -0.50602
 Alpha  occ. eigenvalues --   -0.50583  -0.50574  -0.49887  -0.49881  -0.49300
 Alpha  occ. eigenvalues --   -0.49274  -0.49239  -0.49215  -0.49165  -0.49081
 Alpha  occ. eigenvalues --   -0.48898  -0.48078  -0.48030  -0.47922  -0.47649
 Alpha  occ. eigenvalues --   -0.47390  -0.47294  -0.47251  -0.46997  -0.46947
 Alpha  occ. eigenvalues --   -0.46827  -0.46551  -0.46509  -0.46498  -0.46192
 Alpha  occ. eigenvalues --   -0.46144  -0.46105  -0.45591  -0.45106  -0.44923
 Alpha  occ. eigenvalues --   -0.44882  -0.44214  -0.44145  -0.44036  -0.43491
 Alpha  occ. eigenvalues --   -0.43291  -0.43240  -0.43122  -0.43109  -0.43076
 Alpha  occ. eigenvalues --   -0.42714  -0.42693  -0.42665  -0.42596  -0.42586
 Alpha  occ. eigenvalues --   -0.42505  -0.42474  -0.42452  -0.42295  -0.42279
 Alpha  occ. eigenvalues --   -0.42262  -0.42031  -0.41919  -0.41866  -0.41848
 Alpha  occ. eigenvalues --   -0.41178  -0.41169  -0.41126  -0.41031  -0.40553
 Alpha  occ. eigenvalues --   -0.40531  -0.40515  -0.40374  -0.39443  -0.39441
 Alpha  occ. eigenvalues --   -0.36980  -0.32542  -0.29188  -0.25158  -0.25130
 Alpha  occ. eigenvalues --   -0.23525
 Alpha virt. eigenvalues --   -0.09434  -0.09220  -0.08508  -0.08450  -0.07028
 Alpha virt. eigenvalues --   -0.07007  -0.06927  -0.04442  -0.04141  -0.04095
 Alpha virt. eigenvalues --   -0.03719  -0.03489  -0.03441  -0.03237  -0.03136

 Mulliken charges:
               1
     1  Cl  -0.892197
     2  C   -0.080802
     3  C    0.049263
     4  C   -0.079914
     5  C   -0.033719
     6  C   -0.033872
     7  C   -0.049556
     8  H    0.029983
     9  H    0.029022
    10  H    0.040914
    11  H    0.036759
    12  H    0.039711
    13  C   -0.125099
    14  C    0.025827
    15  H    0.020580
    16  H    0.035824
    17  H    0.024756
    18  O   -0.663734
    19  O   -0.663099
    20  O   -0.655307
    21  O   -0.664183
    22  W    1.734406
    23  W    1.676983
    24  W    1.687169
    25  W    1.697376
    26  W    1.677566
    27  W    1.728762
    28  W    1.619846
    29  W    1.688205
    30  O   -0.320161
    31  O   -0.365834
    32  O   -0.367863
    33  O   -0.359776
    34  O   -0.664339
    35  O   -0.671112
    36  O   -0.661573
    37  O   -0.664315
    38  O   -0.367932
    39  O   -0.364776
    40  O   -0.297579
    41  O   -0.365071
    42  O   -0.670538
    43  O   -0.664202
    44  O   -0.660656
    45  O   -0.666009
    46  O   -0.368139
    47  O   -0.320439
    48  O   -0.361528
    49  O   -0.362178
    50  W    1.674500
    51  W    1.680924
    52  W    1.684703
    53  W    1.686854
    54  O   -0.726325
    55  O   -0.708633
    56  O   -0.726313
    57  O   -0.724123
    58  O   -0.706363
    59  O   -0.727338
    60  O   -0.726175
    61  O   -0.721488
    62  O   -0.725594
    63  O   -0.707894
    64  O   -0.725965
    65  O   -0.726757
    66  O   -0.802284
    67  O   -0.801454
    68  O   -0.798730
    69  O   -0.810280
    70  K    0.863564
    71  K    0.862559
    72  K    0.860698
    73  V    1.194465
 Sum of Mulliken charges =  -1.00000

 Dipole moment (field-independent basis, Debye):
    X=             50.1638    Y=            -51.0937    Z=            -38.7969  Tot=             81.4382
 Quadrupole moment (field-independent basis, Debye-Ang):
   XX=          -1040.0032   YY=           -888.3020   ZZ=           -916.6188
   XY=            445.6727   XZ=            448.8629   YZ=           -476.3370

 Normal termination of Gaussian 16 at Sun Jun  2 22:26:34 2024.
