 Gaussian 16, Revision C.01,
 Gaussian 16:  ES64L-G16RevC.01  3-Jul-2019

 ----------------------------------------------------------------------
 # def2svp wb97xd scrf=(smd,solvent=acetonitrile) g09default scf=(xqc,m
 axcycle=64) force guess=read nosymm
 ----------------------------------------------------------------------

 ----------
 Title Card
 ----------
 Symbolic Z-matrix:
 Charge = -1 Multiplicity = 1

                          Input orientation:
 ---------------------------------------------------------------------
 Center     Atomic      Atomic             Coordinates (Angstroms)
 Number     Number       Type             X           Y           Z
 ---------------------------------------------------------------------
      1         17           0       -9.641168    8.268651   10.538991
      2          6           0       -8.352393    4.258451   12.210509
      3          6           0       -9.147235    3.935204   11.094607
      4          6           0      -10.061167    2.872263   11.216397
      5          6           0      -10.207024    2.184571   12.416511
      6          6           0       -9.428984    2.533596   13.521371
      7          6           0       -8.493515    3.564783   13.408690
      8          1           0       -7.614655    5.061242   12.142880
      9          1           0      -10.673087    2.598766   10.352269
     10          1           0      -10.931392    1.369967   12.490797
     11          1           0       -9.540317    1.994046   14.464352
     12          1           0       -7.871230    3.833029   14.266204
     13          6           0       -9.091298    4.678053    9.834802
     14          6           0       -8.425141    5.832031    9.622143
     15          1           0       -9.680278    4.251840    9.014805
     16          1           0       -8.450692    6.316332    8.645174
     17          1           0       -7.792038    6.294296   10.378820
     18          8           0       -0.975307   -1.806395    7.463092
     19          8           0       -8.384479   -1.330870    7.462161
     20          8           0       -7.015812    1.344341   10.476202
     21          8           0       -2.334446   -4.398353   10.555137
     22         74           0       -3.395023    0.695945    6.483860
     23         74           0       -5.989124   -3.825588    6.559832
     24         74           0       -3.604042    0.870824   11.411539
     25         74           0       -5.762997   -3.871241   11.481316
     26         74           0       -2.432395   -2.590552    6.397679
     27         74           0       -6.929243   -0.537198    6.365109
     28         74           0       -6.808296   -0.254055   11.566807
     29         74           0       -2.545943   -2.741889   11.607045
     30          8           0       -3.159509    1.880974    5.305371
     31          8           0       -6.123883   -5.075599    5.417359
     32          8           0       -2.675607    1.709744   12.561843
     33          8           0       -6.681158   -4.673953   12.662921
     34          8           0       -2.660395   -0.915931    5.588776
     35          8           0       -6.698114   -2.271447    5.620332
     36          8           0       -5.298144    0.547819   12.358545
     37          8           0       -4.050771   -3.537477   12.408655
     38          8           0        0.321167   -0.029412    9.275825
     39          8           0       -9.690254   -3.038128    9.322358
     40          8           0       -6.349241    3.426181    8.665971
     41          8           0       -3.007455   -6.495585    8.744329
     42          8           0       -1.773118    0.740876    7.473711
     43          8           0       -7.596704   -3.883076    7.542014
     44          8           0       -4.486056    2.194481   10.424759
     45          8           0       -4.871862   -5.236135   10.529412
     46          8           0       -1.602938   -3.528632    5.247452
     47          8           0       -7.805372    0.272032    5.170291
     48          8           0       -8.026996   -0.162524   12.746105
     49          8           0       -1.313901   -2.863550   12.770498
     50         74           0       -1.238875   -0.544998    8.839170
     51         74           0       -8.129936   -2.536190    8.873509
     52         74           0       -5.872924    1.854398    9.044024
     53         74           0       -3.491980   -4.921109    9.162812
     54          8           0       -4.212982   -3.116953    6.072329
     55          8           0       -5.144244   -0.061701    6.018685
     56          8           0       -6.166214   -2.003674   11.913254
     57          8           0       -3.169150   -0.992907   11.915587
     58          8           0       -4.346897    1.579193    7.837246
     59          8           0       -5.008982   -4.688413    7.924493
     60          8           0       -2.312118    0.561474   10.075284
     61          8           0       -7.044463   -3.617042   10.130924
     62          8           0       -2.571767   -3.911411    7.866426
     63          8           0       -6.803687    0.791945    7.802204
     64          8           0       -7.818547   -1.179075   10.144101
     65          8           0       -1.549269   -1.877933   10.141781
     66          8           0       -3.351279   -1.162164    8.013430
     67          8           0       -6.011301   -1.964031    8.033846
     68          8           0       -5.109014   -0.212400    9.942174
     69          8           0       -4.237103   -2.851498    9.976197
     70         19           0       -3.215392   -6.134801    5.648123
     71         19           0       -0.120867    0.033374   12.323239
     72         19           0       -9.283545   -2.820983   12.421434
     73         23           0       -4.679211   -1.544257    8.989982
 ---------------------------------------------------------------------

 SCF Done:  E(UwB97XD) =  -7327.70191251     A.U. after   34 cycles

 Alpha  occ. eigenvalues --  -19.24666 -18.94120 -18.93036 -18.92993 -13.36481
 Alpha  occ. eigenvalues --  -13.36477 -13.36456 -10.69408 -10.69404 -10.69404
 Alpha  occ. eigenvalues --  -10.69402 -10.69400 -10.69399 -10.69384 -10.69380
 Alpha  occ. eigenvalues --  -10.69374 -10.33032 -10.32214 -10.31991 -10.31040
 Alpha  occ. eigenvalues --  -10.31011 -10.30985 -10.30593 -10.30523  -9.52515
 Alpha  occ. eigenvalues --   -7.27399  -7.27058  -7.27054  -3.21124  -3.21103
 Alpha  occ. eigenvalues --   -3.21069  -3.21051  -3.21035  -3.21025  -3.21014
 Alpha  occ. eigenvalues --   -3.21012  -3.21003  -3.20871  -3.20869  -3.20839
 Alpha  occ. eigenvalues --   -2.78827  -1.85359  -1.85295  -1.85285  -1.85258
 Alpha  occ. eigenvalues --   -1.85152  -1.85081  -1.85064  -1.85046  -1.85033
 Alpha  occ. eigenvalues --   -1.85023  -1.85006  -1.84953  -1.84398  -1.84286
 Alpha  occ. eigenvalues --   -1.84274  -1.84255  -1.84223  -1.84212  -1.84155
 Alpha  occ. eigenvalues --   -1.84139  -1.84112  -1.84104  -1.84074  -1.84063
 Alpha  occ. eigenvalues --   -1.83966  -1.83924  -1.83886  -1.83880  -1.83866
 Alpha  occ. eigenvalues --   -1.83835  -1.83811  -1.83799  -1.83792  -1.83697
 Alpha  occ. eigenvalues --   -1.83686  -1.83678  -1.81987  -1.81649  -1.81625
 Alpha  occ. eigenvalues --   -1.50187  -1.50182  -1.50167  -1.08631  -1.07008
 Alpha  occ. eigenvalues --   -1.06965  -1.06924  -1.06023  -1.06008  -1.05985
 Alpha  occ. eigenvalues --   -1.04588  -1.04577  -1.04569  -1.03990  -1.03984
 Alpha  occ. eigenvalues --   -1.03719  -1.03379  -1.03343  -1.03323  -1.03037
 Alpha  occ. eigenvalues --   -1.03010  -1.02273  -1.02240  -1.02231  -1.02105
 Alpha  occ. eigenvalues --   -1.02017  -1.01988  -1.01914  -1.01901  -1.01781
 Alpha  occ. eigenvalues --   -1.01769  -1.01751  -1.01626  -1.01583  -1.01574
 Alpha  occ. eigenvalues --   -1.01311  -1.00822  -1.00764  -1.00704  -1.00697
 Alpha  occ. eigenvalues --   -1.00010  -0.99957  -0.99892  -0.96212  -0.89310
 Alpha  occ. eigenvalues --   -0.85637  -0.85626  -0.85619  -0.85481  -0.85472
 Alpha  occ. eigenvalues --   -0.85471  -0.85469  -0.85464  -0.85429  -0.84292
 Alpha  occ. eigenvalues --   -0.82511  -0.81014  -0.71942  -0.69635  -0.65085
 Alpha  occ. eigenvalues --   -0.62342  -0.61733  -0.61665  -0.61639  -0.60613
 Alpha  occ. eigenvalues --   -0.58985  -0.58965  -0.58946  -0.58892  -0.58821
 Alpha  occ. eigenvalues --   -0.58803  -0.58777  -0.58738  -0.58562  -0.57392
 Alpha  occ. eigenvalues --   -0.57349  -0.57327  -0.57037  -0.56789  -0.56509
 Alpha  occ. eigenvalues --   -0.56460  -0.56423  -0.56033  -0.55884  -0.55368
 Alpha  occ. eigenvalues --   -0.55358  -0.55319  -0.54447  -0.54166  -0.54140
 Alpha  occ. eigenvalues --   -0.53967  -0.53717  -0.53666  -0.53655  -0.52755
 Alpha  occ. eigenvalues --   -0.52658  -0.52612  -0.52505  -0.52467  -0.51487
 Alpha  occ. eigenvalues --   -0.51482  -0.51461  -0.51378  -0.51323  -0.50802
 Alpha  occ. eigenvalues --   -0.50574  -0.50536  -0.50490  -0.50411  -0.50342
 Alpha  occ. eigenvalues --   -0.50285  -0.50070  -0.50031  -0.50002  -0.49751
 Alpha  occ. eigenvalues --   -0.49659  -0.49619  -0.49510  -0.49491  -0.49283
 Alpha  occ. eigenvalues --   -0.49237  -0.49202  -0.49141  -0.49095  -0.49021
 Alpha  occ. eigenvalues --   -0.48716  -0.48555  -0.48532  -0.48469  -0.47666
 Alpha  occ. eigenvalues --   -0.47647  -0.47170  -0.46482  -0.46048  -0.46029
 Alpha  occ. eigenvalues --   -0.45884  -0.45860  -0.45757  -0.45630  -0.45226
 Alpha  occ. eigenvalues --   -0.45152  -0.45146  -0.44792  -0.44592  -0.44491
 Alpha  occ. eigenvalues --   -0.44478  -0.44442  -0.44298  -0.44224  -0.44197
 Alpha  occ. eigenvalues --   -0.43461  -0.43125  -0.42548  -0.42516  -0.42441
 Alpha  occ. eigenvalues --   -0.42331  -0.42213  -0.42178  -0.42168  -0.41641
 Alpha  occ. eigenvalues --   -0.41625  -0.41592  -0.41038  -0.40990  -0.40778
 Alpha  occ. eigenvalues --   -0.40766  -0.40741  -0.40380  -0.40361  -0.40330
 Alpha  occ. eigenvalues --   -0.40209  -0.40177  -0.40166  -0.40125  -0.39864
 Alpha  occ. eigenvalues --   -0.39366  -0.39264  -0.39232  -0.39134  -0.39056
 Alpha  occ. eigenvalues --   -0.38911  -0.38883  -0.38807  -0.38761  -0.38700
 Alpha  occ. eigenvalues --   -0.38310  -0.38280  -0.38235  -0.38055  -0.37216
 Alpha  occ. eigenvalues --   -0.37185  -0.34729  -0.34690  -0.33671  -0.30430
 Alpha  occ. eigenvalues --   -0.25799
 Alpha virt. eigenvalues --   -0.12037  -0.06383  -0.06323  -0.04876  -0.04841
 Alpha virt. eigenvalues --   -0.04748  -0.01518  -0.01414  -0.01375  -0.01153
 Alpha virt. eigenvalues --   -0.00922  -0.00921  -0.00882  -0.00161  -0.00093

  Beta  occ. eigenvalues -- -197.10861-129.99072-129.99068-129.99054-101.62505
  Beta  occ. eigenvalues --  -22.43282 -19.28539 -19.28510 -19.28454 -19.28431
  Beta  occ. eigenvalues --  -19.28398 -19.28380 -19.28363 -19.28355 -19.28347
  Beta  occ. eigenvalues --  -19.28276 -19.28255 -19.28166 -19.26947 -19.26925
  Beta  occ. eigenvalues --  -19.26920 -19.26864 -19.26855 -19.26842 -19.26841
  Beta  occ. eigenvalues --  -19.26841 -19.26820 -19.26817 -19.26812 -19.26793
  Beta  occ. eigenvalues --  -19.26791 -19.26787 -19.26780 -19.26773 -19.26768
  Beta  occ. eigenvalues --  -19.26761 -19.26757 -19.26742 -19.26732 -19.26718
  Beta  occ. eigenvalues --  -19.26658 -19.26626 -19.24730 -19.24699 -19.24669
  Beta  occ. eigenvalues --  -19.24641 -18.93775 -18.91594 -18.91509 -13.36481
  Beta  occ. eigenvalues --  -13.36477 -13.36456 -10.69408 -10.69404 -10.69404
  Beta  occ. eigenvalues --  -10.69402 -10.69400 -10.69399 -10.69384 -10.69380
  Beta  occ. eigenvalues --  -10.69374 -10.33315 -10.32329 -10.31939 -10.31146
  Beta  occ. eigenvalues --  -10.31136 -10.31087 -10.30533 -10.30463  -9.52964
  Beta  occ. eigenvalues --   -7.28805  -7.27365  -7.27360  -3.21124  -3.21097
  Beta  occ. eigenvalues --   -3.21069  -3.21045  -3.21035  -3.21019  -3.21008
  Beta  occ. eigenvalues --   -3.21006  -3.20997  -3.20870  -3.20865  -3.20834
  Beta  occ. eigenvalues --   -2.74764  -1.85353  -1.85290  -1.85280  -1.85249
  Beta  occ. eigenvalues --   -1.85146  -1.85075  -1.85060  -1.85040  -1.85024
  Beta  occ. eigenvalues --   -1.85013  -1.85001  -1.84944  -1.84395  -1.84283
  Beta  occ. eigenvalues --   -1.84270  -1.84253  -1.84220  -1.84208  -1.84152
  Beta  occ. eigenvalues --   -1.84137  -1.84109  -1.84101  -1.84071  -1.84060
  Beta  occ. eigenvalues --   -1.83963  -1.83921  -1.83884  -1.83877  -1.83863
  Beta  occ. eigenvalues --   -1.83832  -1.83808  -1.83797  -1.83788  -1.83695
  Beta  occ. eigenvalues --   -1.83683  -1.83675  -1.80648  -1.75980  -1.75793
  Beta  occ. eigenvalues --   -1.50187  -1.50182  -1.50167  -1.08613  -1.06988
  Beta  occ. eigenvalues --   -1.06944  -1.06898  -1.06021  -1.06006  -1.05983
  Beta  occ. eigenvalues --   -1.04589  -1.04578  -1.04568  -1.03992  -1.03983
  Beta  occ. eigenvalues --   -1.03652  -1.03347  -1.03304  -1.03290  -1.03035
  Beta  occ. eigenvalues --   -1.03002  -1.02255  -1.02217  -1.02212  -1.02097
  Beta  occ. eigenvalues --   -1.02012  -1.01975  -1.01909  -1.01887  -1.01776
  Beta  occ. eigenvalues --   -1.01767  -1.01748  -1.01622  -1.01581  -1.01558
  Beta  occ. eigenvalues --   -1.01311  -1.00785  -1.00760  -1.00704  -1.00697
  Beta  occ. eigenvalues --   -0.99875  -0.99819  -0.99772  -0.96444  -0.89987
  Beta  occ. eigenvalues --   -0.85637  -0.85626  -0.85619  -0.85481  -0.85472
  Beta  occ. eigenvalues --   -0.85471  -0.85469  -0.85464  -0.85429  -0.84641
  Beta  occ. eigenvalues --   -0.84370  -0.82710  -0.72203  -0.69758  -0.65339
  Beta  occ. eigenvalues --   -0.62342  -0.61732  -0.61664  -0.61639  -0.60829
  Beta  occ. eigenvalues --   -0.58981  -0.58964  -0.58945  -0.58808  -0.58798
  Beta  occ. eigenvalues --   -0.58767  -0.58751  -0.58693  -0.58562  -0.57354
  Beta  occ. eigenvalues --   -0.57207  -0.57159  -0.57025  -0.56936  -0.56511
  Beta  occ. eigenvalues --   -0.56429  -0.56386  -0.55840  -0.55629  -0.55347
  Beta  occ. eigenvalues --   -0.55338  -0.55321  -0.54658  -0.54158  -0.54131
  Beta  occ. eigenvalues --   -0.53956  -0.53684  -0.53641  -0.53609  -0.52823
  Beta  occ. eigenvalues --   -0.52663  -0.52598  -0.52486  -0.52462  -0.51470
  Beta  occ. eigenvalues --   -0.51456  -0.51446  -0.51322  -0.51254  -0.51004
  Beta  occ. eigenvalues --   -0.50571  -0.50479  -0.50469  -0.50342  -0.50248
  Beta  occ. eigenvalues --   -0.50173  -0.50040  -0.50028  -0.49966  -0.49699
  Beta  occ. eigenvalues --   -0.49635  -0.49583  -0.49500  -0.49480  -0.49282
  Beta  occ. eigenvalues --   -0.49216  -0.49201  -0.49113  -0.49081  -0.49000
  Beta  occ. eigenvalues --   -0.48710  -0.48551  -0.48532  -0.48463  -0.47846
  Beta  occ. eigenvalues --   -0.47619  -0.47581  -0.46056  -0.45908  -0.45875
  Beta  occ. eigenvalues --   -0.45816  -0.45675  -0.45573  -0.45226  -0.45168
  Beta  occ. eigenvalues --   -0.45153  -0.45054  -0.44791  -0.44590  -0.44473
  Beta  occ. eigenvalues --   -0.44426  -0.44419  -0.44278  -0.44202  -0.44175
  Beta  occ. eigenvalues --   -0.43454  -0.43229  -0.42496  -0.42458  -0.42411
  Beta  occ. eigenvalues --   -0.42302  -0.42254  -0.42143  -0.42130  -0.41630
  Beta  occ. eigenvalues --   -0.41608  -0.41572  -0.41404  -0.41044  -0.40949
  Beta  occ. eigenvalues --   -0.40757  -0.40708  -0.40680  -0.40365  -0.40350
  Beta  occ. eigenvalues --   -0.40315  -0.40164  -0.40152  -0.40140  -0.39807
  Beta  occ. eigenvalues --   -0.39624  -0.39366  -0.39169  -0.39090  -0.39086
  Beta  occ. eigenvalues --   -0.38900  -0.38851  -0.38812  -0.38746  -0.38702
  Beta  occ. eigenvalues --   -0.38651  -0.38305  -0.38275  -0.38231  -0.37652
  Beta  occ. eigenvalues --   -0.37217  -0.37180  -0.35662  -0.35616  -0.33958
  Beta  occ. eigenvalues --   -0.30879
  Beta virt. eigenvalues --   -0.06381  -0.06323  -0.04875  -0.04840  -0.04748
  Beta virt. eigenvalues --   -0.01514  -0.01410  -0.01370  -0.01148  -0.00918
  Beta virt. eigenvalues --   -0.00916  -0.00878  -0.00151  -0.00080  -0.00043

 Mulliken charges and spin densities:
               1          2
     1  Cl  -0.351159  -0.604015
     2  C   -0.035261  -0.097402
     3  C    0.012298   0.058507
     4  C   -0.034918  -0.093258
     5  C   -0.031500   0.059425
     6  C    0.008092  -0.117265
     7  C   -0.047674   0.059530
     8  H    0.050893   0.004245
     9  H    0.050887   0.003999
    10  H    0.056088  -0.002122
    11  H    0.057187   0.005149
    12  H    0.054610  -0.002092
    13  C    0.006662  -0.265536
    14  C   -0.043400  -0.017625
    15  H    0.077010   0.010898
    16  H    0.094905   0.001179
    17  H    0.088292  -0.001973
    18  O   -0.672690  -0.000567
    19  O   -0.671916  -0.000530
    20  O   -0.666561  -0.001604
    21  O   -0.673216  -0.000542
    22  W    1.717655   0.000357
    23  W    1.662672   0.000483
    24  W    1.674482   0.000167
    25  W    1.683215   0.000216
    26  W    1.663910   0.002702
    27  W    1.710943   0.002433
    28  W    1.611914   0.003340
    29  W    1.673752   0.002781
    30  O   -0.350043  -0.000527
    31  O   -0.394210  -0.000572
    32  O   -0.396308  -0.000614
    33  O   -0.388524  -0.000571
    34  O   -0.672665  -0.000278
    35  O   -0.678569  -0.000016
    36  O   -0.670678  -0.000121
    37  O   -0.673282  -0.000185
    38  O   -0.397779   0.002122
    39  O   -0.394923   0.002159
    40  O   -0.340582   0.000242
    41  O   -0.395152   0.002129
    42  O   -0.678200   0.000031
    43  O   -0.672877   0.000133
    44  O   -0.669220   0.000253
    45  O   -0.674471   0.000079
    46  O   -0.398057   0.002266
    47  O   -0.352114   0.002141
    48  O   -0.394768   0.001801
    49  O   -0.392324   0.002294
    50  W    1.660465   0.002804
    51  W    1.666433   0.002699
    52  W    1.677774   0.003947
    53  W    1.672118   0.002651
    54  O   -0.724197   0.000109
    55  O   -0.706739   0.000017
    56  O   -0.722968   0.000156
    57  O   -0.721954   0.000073
    58  O   -0.704187   0.000071
    59  O   -0.724548   0.000155
    60  O   -0.723649   0.000210
    61  O   -0.719053   0.000198
    62  O   -0.723997  -0.000185
    63  O   -0.706642  -0.000059
    64  O   -0.724997  -0.000204
    65  O   -0.724832  -0.000206
    66  O   -0.884590   0.005309
    67  O   -0.884638   0.007307
    68  O   -0.881799   0.007127
    69  O   -0.890088   0.006451
    70  K    0.849898   0.000192
    71  K    0.849001   0.000215
    72  K    0.846882   0.000214
    73  V    1.203882   0.937103
 Sum of Mulliken charges =  -1.00000   0.00000

 Dipole moment (field-independent basis, Debye):
    X=             28.0561    Y=            -13.6510    Z=            -30.6734  Tot=             43.7533
 Quadrupole moment (field-independent basis, Debye-Ang):
   XX=           -758.6002   YY=           -711.5400   ZZ=           -781.1241
   XY=            126.5494   XZ=            173.7172   YZ=            -92.5074

 Normal termination of Gaussian 16 at Sun Jun  2 22:16:12 2024.
