 Gaussian 16, Revision C.01,
 Gaussian 16:  ES64L-G16RevC.01  3-Jul-2019

 ----------------------------------------------------------------------
 # def2svp wb97xd scrf=(smd,solvent=acetonitrile) g09default scf=(xqc,m
 axcycle=64) force guess=read nosymm
 ----------------------------------------------------------------------

 ----------
 Title Card
 ----------
 Symbolic Z-matrix:
 Charge = -1 Multiplicity = 1

                          Input orientation:
 ---------------------------------------------------------------------
 Center     Atomic      Atomic             Coordinates (Angstroms)
 Number     Number       Type             X           Y           Z
 ---------------------------------------------------------------------
      1         17           0       -9.641604    8.268136   10.538064
      2          6           0       -8.354328    4.260364   12.209689
      3          6           0       -9.149363    3.936351   11.094077
      4          6           0      -10.063350    2.873608   11.216731
      5          6           0      -10.207221    2.185139   12.416620
      6          6           0       -9.427046    2.533064   13.520339
      7          6           0       -8.493312    3.565808   13.407510
      8          1           0       -7.618555    5.064931   12.142501
      9          1           0      -10.677239    2.601278   10.353585
     10          1           0      -10.932296    1.371234   12.491918
     11          1           0       -9.535652    1.991885   14.462661
     12          1           0       -7.871197    3.835221   14.264769
     13          6           0       -9.094368    4.679618    9.834559
     14          6           0       -8.426906    5.833035    9.622894
     15          1           0       -9.685127    4.254949    9.015013
     16          1           0       -8.454244    6.320752    8.647807
     17          1           0       -7.790890    6.291476   10.379438
     18          8           0       -0.975357   -1.807389    7.462494
     19          8           0       -8.383557   -1.330392    7.462198
     20          8           0       -7.015075    1.343649   10.476938
     21          8           0       -2.334290   -4.398309   10.555135
     22         74           0       -3.393799    0.697219    6.485352
     23         74           0       -5.989352   -3.826919    6.560432
     24         74           0       -3.602623    0.871466   11.410470
     25         74           0       -5.763466   -3.872580   11.480746
     26         74           0       -2.433203   -2.590205    6.396314
     27         74           0       -6.927524   -0.537834    6.363918
     28         74           0       -6.806685   -0.254902   11.568241
     29         74           0       -2.546650   -2.742185   11.608027
     30          8           0       -3.157936    1.883101    5.307745
     31          8           0       -6.124454   -5.076797    5.417842
     32          8           0       -2.674414    1.710239   12.560924
     33          8           0       -6.681251   -4.675958   12.662315
     34          8           0       -2.660756   -0.915528    5.588672
     35          8           0       -6.697661   -2.272057    5.620366
     36          8           0       -5.296497    0.547280   12.358511
     37          8           0       -4.051067   -3.538055   12.408742
     38          8           0        0.322658   -0.031892    9.275332
     39          8           0       -9.690413   -3.036846    9.321753
     40          8           0       -6.350566    3.425305    8.666433
     41          8           0       -3.006232   -6.495632    8.744488
     42          8           0       -1.772031    0.740118    7.474037
     43          8           0       -7.596709   -3.883043    7.542380
     44          8           0       -4.485422    2.194403   10.424545
     45          8           0       -4.871591   -5.236541   10.528981
     46          8           0       -1.603832   -3.527605    5.245719
     47          8           0       -7.803634    0.270876    5.168748
     48          8           0       -8.024828   -0.162053   12.747917
     49          8           0       -1.315168   -2.864097   12.772134
     50         74           0       -1.237600   -0.547074    8.839337
     51         74           0       -8.129761   -2.535066    8.873448
     52         74           0       -5.873890    1.853687    9.044256
     53         74           0       -3.490956   -4.921155    9.162541
     54          8           0       -4.213404   -3.117577    6.071891
     55          8           0       -5.143291   -0.061168    6.018658
     56          8           0       -6.166165   -2.004713   11.914310
     57          8           0       -3.168324   -0.992987   11.915219
     58          8           0       -4.346333    1.579330    7.838060
     59          8           0       -5.008963   -4.689594    7.924290
     60          8           0       -2.310421    0.561176   10.075114
     61          8           0       -7.044835   -3.617420   10.131202
     62          8           0       -2.572057   -3.911747    7.865669
     63          8           0       -6.803146    0.791570    7.802038
     64          8           0       -7.817964   -1.179311   10.145101
     65          8           0       -1.548190   -1.878675   10.142344
     66          8           0       -3.350805   -1.162438    8.013694
     67          8           0       -6.010632   -1.964527    8.033879
     68          8           0       -5.108268   -0.212732    9.942157
     69          8           0       -4.237164   -2.851786    9.976219
     70         19           0       -3.215907   -6.135373    5.648248
     71         19           0       -0.122049    0.030544   12.322047
     72         19           0       -9.283794   -2.820466   12.420130
     73         23           0       -4.678777   -1.544593    8.990003
 ---------------------------------------------------------------------

 SCF Done:  E(RwB97XD) =  -7327.70194430     A.U. after   11 cycles

 Alpha  occ. eigenvalues -- -197.29399-130.00097-130.00056-129.99993-101.48386
 Alpha  occ. eigenvalues --  -22.62528 -19.33615 -19.33609 -19.33607 -19.33582
 Alpha  occ. eigenvalues --  -19.30729 -19.30694 -19.30693 -19.30682 -19.30680
 Alpha  occ. eigenvalues --  -19.30673 -19.30664 -19.30640 -19.30572 -19.30368
 Alpha  occ. eigenvalues --  -19.30347 -19.30175 -19.29325 -19.29322 -19.29299
 Alpha  occ. eigenvalues --  -19.29288 -19.29273 -19.29272 -19.29244 -19.29222
 Alpha  occ. eigenvalues --  -19.29210 -19.29179 -19.29177 -19.29154 -19.29143
 Alpha  occ. eigenvalues --  -19.29108 -19.29100 -19.29098 -19.29095 -19.29070
 Alpha  occ. eigenvalues --  -19.29067 -19.29030 -19.28998 -19.28973 -19.28954
 Alpha  occ. eigenvalues --  -19.28868 -19.11484 -19.11476 -19.11468 -13.37499
 Alpha  occ. eigenvalues --  -13.37458 -13.37389 -10.70429 -10.70422 -10.70421
 Alpha  occ. eigenvalues --  -10.70388 -10.70381 -10.70379 -10.70320 -10.70313
 Alpha  occ. eigenvalues --  -10.70308 -10.29825 -10.29328 -10.29276 -10.29036
 Alpha  occ. eigenvalues --  -10.28938 -10.28933 -10.28063 -10.27439  -9.38863
 Alpha  occ. eigenvalues --   -7.13690  -7.13639  -7.13632  -3.23322  -3.23320
 Alpha  occ. eigenvalues --   -3.23302  -3.23299  -3.23293  -3.23271  -3.23259
 Alpha  occ. eigenvalues --   -3.23256  -3.23228  -3.22975  -3.22957  -3.22778
 Alpha  occ. eigenvalues --   -2.91783  -1.94168  -1.94135  -1.94123  -1.87722
 Alpha  occ. eigenvalues --   -1.87678  -1.87662  -1.87631  -1.87493  -1.87474
 Alpha  occ. eigenvalues --   -1.87470  -1.87453  -1.87431  -1.87276  -1.87247
 Alpha  occ. eigenvalues --   -1.87096  -1.86631  -1.86513  -1.86503  -1.86486
 Alpha  occ. eigenvalues --   -1.86459  -1.86438  -1.86347  -1.86334  -1.86319
 Alpha  occ. eigenvalues --   -1.86300  -1.86292  -1.86264  -1.86149  -1.86138
 Alpha  occ. eigenvalues --   -1.86125  -1.86116  -1.86044  -1.86029  -1.85992
 Alpha  occ. eigenvalues --   -1.85922  -1.85905  -1.85805  -1.85716  -1.85667
 Alpha  occ. eigenvalues --   -1.51190  -1.51150  -1.51086  -1.13048  -1.11276
 Alpha  occ. eigenvalues --   -1.11191  -1.11189  -1.08966  -1.08533  -1.08494
 Alpha  occ. eigenvalues --   -1.08325  -1.07566  -1.07503  -1.07495  -1.06905
 Alpha  occ. eigenvalues --   -1.06896  -1.06876  -1.06327  -1.06305  -1.05326
 Alpha  occ. eigenvalues --   -1.05319  -1.04986  -1.04981  -1.04968  -1.04202
 Alpha  occ. eigenvalues --   -1.04193  -1.04179  -1.04035  -1.04012  -1.04003
 Alpha  occ. eigenvalues --   -1.03946  -1.03924  -1.03900  -1.03767  -1.03748
 Alpha  occ. eigenvalues --   -1.03622  -1.03561  -1.03305  -1.03268  -1.03125
 Alpha  occ. eigenvalues --   -1.03116  -1.03039  -1.02971  -0.94355  -0.86659
 Alpha  occ. eigenvalues --   -0.86626  -0.86563  -0.86482  -0.86465  -0.86465
 Alpha  occ. eigenvalues --   -0.86431  -0.86417  -0.86376  -0.86340  -0.82798
 Alpha  occ. eigenvalues --   -0.79714  -0.71650  -0.69641  -0.67981  -0.64618
 Alpha  occ. eigenvalues --   -0.63992  -0.63915  -0.63900  -0.63308  -0.63289
 Alpha  occ. eigenvalues --   -0.63170  -0.62906  -0.62673  -0.62603  -0.61987
 Alpha  occ. eigenvalues --   -0.61621  -0.61605  -0.61511  -0.61258  -0.61246
 Alpha  occ. eigenvalues --   -0.61184  -0.60420  -0.59484  -0.59460  -0.59450
 Alpha  occ. eigenvalues --   -0.59412  -0.59368  -0.58574  -0.58007  -0.57974
 Alpha  occ. eigenvalues --   -0.57889  -0.57063  -0.57031  -0.57003  -0.56294
 Alpha  occ. eigenvalues --   -0.56275  -0.56120  -0.55706  -0.54866  -0.54813
 Alpha  occ. eigenvalues --   -0.54770  -0.54510  -0.54243  -0.54113  -0.54104
 Alpha  occ. eigenvalues --   -0.54027  -0.53963  -0.53248  -0.53214  -0.53081
 Alpha  occ. eigenvalues --   -0.53045  -0.52907  -0.52719  -0.52685  -0.52646
 Alpha  occ. eigenvalues --   -0.52618  -0.52512  -0.52470  -0.52404  -0.51618
 Alpha  occ. eigenvalues --   -0.51603  -0.51335  -0.51316  -0.51273  -0.51233
 Alpha  occ. eigenvalues --   -0.51178  -0.51164  -0.50931  -0.50778  -0.50605
 Alpha  occ. eigenvalues --   -0.50585  -0.50577  -0.49891  -0.49884  -0.49301
 Alpha  occ. eigenvalues --   -0.49274  -0.49238  -0.49215  -0.49165  -0.49082
 Alpha  occ. eigenvalues --   -0.48899  -0.48078  -0.48030  -0.47922  -0.47644
 Alpha  occ. eigenvalues --   -0.47391  -0.47294  -0.47251  -0.46998  -0.46951
 Alpha  occ. eigenvalues --   -0.46831  -0.46552  -0.46515  -0.46501  -0.46193
 Alpha  occ. eigenvalues --   -0.46145  -0.46106  -0.45593  -0.45107  -0.44924
 Alpha  occ. eigenvalues --   -0.44883  -0.44213  -0.44146  -0.44037  -0.43490
 Alpha  occ. eigenvalues --   -0.43294  -0.43243  -0.43124  -0.43111  -0.43078
 Alpha  occ. eigenvalues --   -0.42717  -0.42696  -0.42668  -0.42597  -0.42588
 Alpha  occ. eigenvalues --   -0.42507  -0.42476  -0.42455  -0.42297  -0.42281
 Alpha  occ. eigenvalues --   -0.42264  -0.42033  -0.41919  -0.41867  -0.41850
 Alpha  occ. eigenvalues --   -0.41183  -0.41172  -0.41127  -0.41035  -0.40555
 Alpha  occ. eigenvalues --   -0.40534  -0.40519  -0.40373  -0.39444  -0.39443
 Alpha  occ. eigenvalues --   -0.36982  -0.32543  -0.29191  -0.25162  -0.25134
 Alpha  occ. eigenvalues --   -0.23519
 Alpha virt. eigenvalues --   -0.09424  -0.09212  -0.08499  -0.08442  -0.07021
 Alpha virt. eigenvalues --   -0.07000  -0.06922  -0.04432  -0.04136  -0.04089
 Alpha virt. eigenvalues --   -0.03720  -0.03490  -0.03441  -0.03235  -0.03134

 Mulliken charges:
               1
     1  Cl  -0.891949
     2  C   -0.080976
     3  C    0.049361
     4  C   -0.080082
     5  C   -0.033732
     6  C   -0.033835
     7  C   -0.049502
     8  H    0.029884
     9  H    0.028994
    10  H    0.040893
    11  H    0.036733
    12  H    0.039653
    13  C   -0.125471
    14  C    0.026556
    15  H    0.020478
    16  H    0.035646
    17  H    0.024867
    18  O   -0.663682
    19  O   -0.662908
    20  O   -0.655292
    21  O   -0.664119
    22  W    1.734079
    23  W    1.676647
    24  W    1.686848
    25  W    1.697113
    26  W    1.677380
    27  W    1.728531
    28  W    1.619481
    29  W    1.687940
    30  O   -0.320218
    31  O   -0.365835
    32  O   -0.367760
    33  O   -0.359740
    34  O   -0.664148
    35  O   -0.671022
    36  O   -0.661490
    37  O   -0.664153
    38  O   -0.367815
    39  O   -0.364882
    40  O   -0.297552
    41  O   -0.365009
    42  O   -0.670462
    43  O   -0.664128
    44  O   -0.660465
    45  O   -0.665962
    46  O   -0.367924
    47  O   -0.320427
    48  O   -0.361360
    49  O   -0.362261
    50  W    1.674154
    51  W    1.680674
    52  W    1.684553
    53  W    1.686592
    54  O   -0.726260
    55  O   -0.708449
    56  O   -0.726194
    57  O   -0.724051
    58  O   -0.706155
    59  O   -0.727165
    60  O   -0.726114
    61  O   -0.721310
    62  O   -0.725506
    63  O   -0.707738
    64  O   -0.725985
    65  O   -0.726653
    66  O   -0.802148
    67  O   -0.801374
    68  O   -0.798625
    69  O   -0.810170
    70  K    0.863651
    71  K    0.862460
    72  K    0.860764
    73  V    1.194125
 Sum of Mulliken charges =  -1.00000

 Dipole moment (field-independent basis, Debye):
    X=             50.1493    Y=            -51.0890    Z=            -38.8141  Tot=             81.4345
 Quadrupole moment (field-independent basis, Debye-Ang):
   XX=          -1039.9311   YY=           -888.1020   ZZ=           -917.0107
   XY=            445.5158   XZ=            448.7625   YZ=           -476.2254

 Normal termination of Gaussian 16 at Sun Jun  2 23:00:45 2024.
