 Gaussian 16, Revision C.01,
 Gaussian 16:  ES64L-G16RevC.01  3-Jul-2019

 ----------------------------------------------------------------------
 # def2svp wb97xd scrf=(smd,solvent=acetonitrile) g09default scf=(xqc,m
 axcycle=64) force guess=read nosymm
 ----------------------------------------------------------------------

 ----------
 Title Card
 ----------
 Symbolic Z-matrix:
 Charge = -1 Multiplicity = 1

                          Input orientation:
 ---------------------------------------------------------------------
 Center     Atomic      Atomic             Coordinates (Angstroms)
 Number     Number       Type             X           Y           Z
 ---------------------------------------------------------------------
      1         17           0       -9.641604    8.268136   10.538064
      2          6           0       -8.354328    4.260364   12.209689
      3          6           0       -9.149363    3.936351   11.094077
      4          6           0      -10.063350    2.873608   11.216731
      5          6           0      -10.207221    2.185139   12.416620
      6          6           0       -9.427046    2.533064   13.520339
      7          6           0       -8.493312    3.565808   13.407510
      8          1           0       -7.618555    5.064931   12.142501
      9          1           0      -10.677239    2.601278   10.353585
     10          1           0      -10.932296    1.371234   12.491918
     11          1           0       -9.535652    1.991885   14.462661
     12          1           0       -7.871197    3.835221   14.264769
     13          6           0       -9.094368    4.679618    9.834559
     14          6           0       -8.426906    5.833035    9.622894
     15          1           0       -9.685127    4.254949    9.015013
     16          1           0       -8.454244    6.320752    8.647807
     17          1           0       -7.790890    6.291476   10.379438
     18          8           0       -0.975357   -1.807389    7.462494
     19          8           0       -8.383557   -1.330392    7.462198
     20          8           0       -7.015075    1.343649   10.476938
     21          8           0       -2.334290   -4.398309   10.555135
     22         74           0       -3.393799    0.697219    6.485352
     23         74           0       -5.989352   -3.826919    6.560432
     24         74           0       -3.602623    0.871466   11.410470
     25         74           0       -5.763466   -3.872580   11.480746
     26         74           0       -2.433203   -2.590205    6.396314
     27         74           0       -6.927524   -0.537834    6.363918
     28         74           0       -6.806685   -0.254902   11.568241
     29         74           0       -2.546650   -2.742185   11.608027
     30          8           0       -3.157936    1.883101    5.307745
     31          8           0       -6.124454   -5.076797    5.417842
     32          8           0       -2.674414    1.710239   12.560924
     33          8           0       -6.681251   -4.675958   12.662315
     34          8           0       -2.660756   -0.915528    5.588672
     35          8           0       -6.697661   -2.272057    5.620366
     36          8           0       -5.296497    0.547280   12.358511
     37          8           0       -4.051067   -3.538055   12.408742
     38          8           0        0.322658   -0.031892    9.275332
     39          8           0       -9.690413   -3.036846    9.321753
     40          8           0       -6.350566    3.425305    8.666433
     41          8           0       -3.006232   -6.495632    8.744488
     42          8           0       -1.772031    0.740118    7.474037
     43          8           0       -7.596709   -3.883043    7.542380
     44          8           0       -4.485422    2.194403   10.424545
     45          8           0       -4.871591   -5.236541   10.528981
     46          8           0       -1.603832   -3.527605    5.245719
     47          8           0       -7.803634    0.270876    5.168748
     48          8           0       -8.024828   -0.162053   12.747917
     49          8           0       -1.315168   -2.864097   12.772134
     50         74           0       -1.237600   -0.547074    8.839337
     51         74           0       -8.129761   -2.535066    8.873448
     52         74           0       -5.873890    1.853687    9.044256
     53         74           0       -3.490956   -4.921155    9.162541
     54          8           0       -4.213404   -3.117577    6.071891
     55          8           0       -5.143291   -0.061168    6.018658
     56          8           0       -6.166165   -2.004713   11.914310
     57          8           0       -3.168324   -0.992987   11.915219
     58          8           0       -4.346333    1.579330    7.838060
     59          8           0       -5.008963   -4.689594    7.924290
     60          8           0       -2.310421    0.561176   10.075114
     61          8           0       -7.044835   -3.617420   10.131202
     62          8           0       -2.572057   -3.911747    7.865669
     63          8           0       -6.803146    0.791570    7.802038
     64          8           0       -7.817964   -1.179311   10.145101
     65          8           0       -1.548190   -1.878675   10.142344
     66          8           0       -3.350805   -1.162438    8.013694
     67          8           0       -6.010632   -1.964527    8.033879
     68          8           0       -5.108268   -0.212732    9.942157
     69          8           0       -4.237164   -2.851786    9.976219
     70         19           0       -3.215907   -6.135373    5.648248
     71         19           0       -0.122049    0.030544   12.322047
     72         19           0       -9.283794   -2.820466   12.420130
     73         23           0       -4.678777   -1.544593    8.990003
 ---------------------------------------------------------------------

 SCF Done:  E(UwB97XD) =  -7327.70193070     A.U. after   33 cycles

 Alpha  occ. eigenvalues --  -19.24665 -18.94106 -18.93024 -18.92976 -13.36479
 Alpha  occ. eigenvalues --  -13.36473 -13.36458 -10.69406 -10.69402 -10.69401
 Alpha  occ. eigenvalues --  -10.69401 -10.69397 -10.69395 -10.69386 -10.69382
 Alpha  occ. eigenvalues --  -10.69376 -10.33037 -10.32222 -10.31994 -10.31042
 Alpha  occ. eigenvalues --  -10.31014 -10.30988 -10.30594 -10.30526  -9.52496
 Alpha  occ. eigenvalues --   -7.27379  -7.27039  -7.27035  -3.21122  -3.21103
 Alpha  occ. eigenvalues --   -3.21070  -3.21051  -3.21035  -3.21025  -3.21013
 Alpha  occ. eigenvalues --   -3.21011  -3.21003  -3.20869  -3.20866  -3.20838
 Alpha  occ. eigenvalues --   -2.78817  -1.85358  -1.85294  -1.85285  -1.85258
 Alpha  occ. eigenvalues --   -1.85152  -1.85081  -1.85064  -1.85046  -1.85033
 Alpha  occ. eigenvalues --   -1.85023  -1.85005  -1.84953  -1.84397  -1.84285
 Alpha  occ. eigenvalues --   -1.84274  -1.84256  -1.84223  -1.84212  -1.84155
 Alpha  occ. eigenvalues --   -1.84139  -1.84112  -1.84104  -1.84073  -1.84063
 Alpha  occ. eigenvalues --   -1.83965  -1.83924  -1.83886  -1.83881  -1.83866
 Alpha  occ. eigenvalues --   -1.83834  -1.83810  -1.83799  -1.83792  -1.83696
 Alpha  occ. eigenvalues --   -1.83685  -1.83677  -1.81978  -1.81642  -1.81615
 Alpha  occ. eigenvalues --   -1.50184  -1.50180  -1.50168  -1.08630  -1.07008
 Alpha  occ. eigenvalues --   -1.06965  -1.06924  -1.06022  -1.06008  -1.05985
 Alpha  occ. eigenvalues --   -1.04588  -1.04577  -1.04570  -1.03989  -1.03983
 Alpha  occ. eigenvalues --   -1.03717  -1.03377  -1.03342  -1.03322  -1.03038
 Alpha  occ. eigenvalues --   -1.03012  -1.02273  -1.02240  -1.02232  -1.02107
 Alpha  occ. eigenvalues --   -1.02017  -1.01991  -1.01915  -1.01902  -1.01783
 Alpha  occ. eigenvalues --   -1.01770  -1.01753  -1.01626  -1.01583  -1.01575
 Alpha  occ. eigenvalues --   -1.01312  -1.00822  -1.00766  -1.00707  -1.00700
 Alpha  occ. eigenvalues --   -1.00008  -0.99954  -0.99890  -0.96216  -0.89317
 Alpha  occ. eigenvalues --   -0.85631  -0.85628  -0.85621  -0.85475  -0.85474
 Alpha  occ. eigenvalues --   -0.85473  -0.85471  -0.85458  -0.85431  -0.84297
 Alpha  occ. eigenvalues --   -0.82511  -0.81003  -0.71947  -0.69637  -0.65089
 Alpha  occ. eigenvalues --   -0.62341  -0.61732  -0.61664  -0.61639  -0.60620
 Alpha  occ. eigenvalues --   -0.58985  -0.58965  -0.58947  -0.58892  -0.58821
 Alpha  occ. eigenvalues --   -0.58801  -0.58775  -0.58735  -0.58561  -0.57390
 Alpha  occ. eigenvalues --   -0.57347  -0.57324  -0.57035  -0.56794  -0.56508
 Alpha  occ. eigenvalues --   -0.56460  -0.56422  -0.56032  -0.55882  -0.55368
 Alpha  occ. eigenvalues --   -0.55358  -0.55319  -0.54446  -0.54168  -0.54142
 Alpha  occ. eigenvalues --   -0.53971  -0.53715  -0.53663  -0.53653  -0.52760
 Alpha  occ. eigenvalues --   -0.52659  -0.52612  -0.52506  -0.52466  -0.51487
 Alpha  occ. eigenvalues --   -0.51484  -0.51462  -0.51380  -0.51324  -0.50805
 Alpha  occ. eigenvalues --   -0.50575  -0.50536  -0.50491  -0.50412  -0.50343
 Alpha  occ. eigenvalues --   -0.50285  -0.50072  -0.50033  -0.50004  -0.49753
 Alpha  occ. eigenvalues --   -0.49661  -0.49622  -0.49512  -0.49493  -0.49284
 Alpha  occ. eigenvalues --   -0.49239  -0.49202  -0.49139  -0.49094  -0.49018
 Alpha  occ. eigenvalues --   -0.48718  -0.48558  -0.48534  -0.48470  -0.47670
 Alpha  occ. eigenvalues --   -0.47651  -0.47176  -0.46483  -0.46048  -0.46029
 Alpha  occ. eigenvalues --   -0.45883  -0.45864  -0.45758  -0.45632  -0.45227
 Alpha  occ. eigenvalues --   -0.45152  -0.45147  -0.44797  -0.44596  -0.44491
 Alpha  occ. eigenvalues --   -0.44479  -0.44444  -0.44298  -0.44228  -0.44201
 Alpha  occ. eigenvalues --   -0.43458  -0.43132  -0.42549  -0.42518  -0.42443
 Alpha  occ. eigenvalues --   -0.42331  -0.42215  -0.42178  -0.42168  -0.41641
 Alpha  occ. eigenvalues --   -0.41626  -0.41591  -0.41039  -0.40991  -0.40780
 Alpha  occ. eigenvalues --   -0.40767  -0.40744  -0.40384  -0.40365  -0.40333
 Alpha  occ. eigenvalues --   -0.40211  -0.40179  -0.40168  -0.40127  -0.39867
 Alpha  occ. eigenvalues --   -0.39366  -0.39265  -0.39233  -0.39136  -0.39055
 Alpha  occ. eigenvalues --   -0.38914  -0.38886  -0.38808  -0.38760  -0.38702
 Alpha  occ. eigenvalues --   -0.38311  -0.38283  -0.38239  -0.38060  -0.37216
 Alpha  occ. eigenvalues --   -0.37187  -0.34715  -0.34676  -0.33675  -0.30438
 Alpha  occ. eigenvalues --   -0.25788
 Alpha virt. eigenvalues --   -0.12021  -0.06374  -0.06315  -0.04869  -0.04834
 Alpha virt. eigenvalues --   -0.04743  -0.01518  -0.01414  -0.01375  -0.01150
 Alpha virt. eigenvalues --   -0.00924  -0.00919  -0.00881  -0.00161  -0.00092

  Beta  occ. eigenvalues -- -197.10846-129.99070-129.99066-129.99056-101.62485
  Beta  occ. eigenvalues --  -22.43268 -19.28540 -19.28511 -19.28453 -19.28434
  Beta  occ. eigenvalues --  -19.28399 -19.28379 -19.28363 -19.28357 -19.28349
  Beta  occ. eigenvalues --  -19.28275 -19.28256 -19.28167 -19.26948 -19.26927
  Beta  occ. eigenvalues --  -19.26922 -19.26866 -19.26858 -19.26846 -19.26844
  Beta  occ. eigenvalues --  -19.26842 -19.26822 -19.26820 -19.26813 -19.26795
  Beta  occ. eigenvalues --  -19.26795 -19.26789 -19.26784 -19.26779 -19.26771
  Beta  occ. eigenvalues --  -19.26763 -19.26759 -19.26746 -19.26737 -19.26719
  Beta  occ. eigenvalues --  -19.26659 -19.26629 -19.24728 -19.24694 -19.24664
  Beta  occ. eigenvalues --  -19.24639 -18.93761 -18.91584 -18.91491 -13.36479
  Beta  occ. eigenvalues --  -13.36473 -13.36458 -10.69406 -10.69402 -10.69401
  Beta  occ. eigenvalues --  -10.69401 -10.69397 -10.69395 -10.69386 -10.69382
  Beta  occ. eigenvalues --  -10.69376 -10.33321 -10.32337 -10.31942 -10.31148
  Beta  occ. eigenvalues --  -10.31139 -10.31090 -10.30534 -10.30466  -9.52943
  Beta  occ. eigenvalues --   -7.28783  -7.27345  -7.27341  -3.21122  -3.21097
  Beta  occ. eigenvalues --   -3.21070  -3.21045  -3.21034  -3.21019  -3.21007
  Beta  occ. eigenvalues --   -3.21005  -3.20997  -3.20867  -3.20863  -3.20833
  Beta  occ. eigenvalues --   -2.74754  -1.85353  -1.85289  -1.85280  -1.85249
  Beta  occ. eigenvalues --   -1.85147  -1.85075  -1.85059  -1.85040  -1.85025
  Beta  occ. eigenvalues --   -1.85014  -1.85000  -1.84944  -1.84395  -1.84283
  Beta  occ. eigenvalues --   -1.84270  -1.84253  -1.84220  -1.84208  -1.84152
  Beta  occ. eigenvalues --   -1.84137  -1.84109  -1.84101  -1.84070  -1.84060
  Beta  occ. eigenvalues --   -1.83962  -1.83921  -1.83884  -1.83878  -1.83863
  Beta  occ. eigenvalues --   -1.83831  -1.83807  -1.83796  -1.83788  -1.83694
  Beta  occ. eigenvalues --   -1.83682  -1.83675  -1.80639  -1.75981  -1.75776
  Beta  occ. eigenvalues --   -1.50184  -1.50180  -1.50168  -1.08612  -1.06987
  Beta  occ. eigenvalues --   -1.06943  -1.06898  -1.06021  -1.06006  -1.05984
  Beta  occ. eigenvalues --   -1.04589  -1.04578  -1.04569  -1.03991  -1.03983
  Beta  occ. eigenvalues --   -1.03650  -1.03345  -1.03303  -1.03290  -1.03036
  Beta  occ. eigenvalues --   -1.03004  -1.02255  -1.02217  -1.02212  -1.02098
  Beta  occ. eigenvalues --   -1.02012  -1.01978  -1.01909  -1.01888  -1.01778
  Beta  occ. eigenvalues --   -1.01768  -1.01749  -1.01623  -1.01581  -1.01559
  Beta  occ. eigenvalues --   -1.01312  -1.00785  -1.00761  -1.00707  -1.00700
  Beta  occ. eigenvalues --   -0.99872  -0.99815  -0.99770  -0.96449  -0.89996
  Beta  occ. eigenvalues --   -0.85631  -0.85628  -0.85621  -0.85475  -0.85474
  Beta  occ. eigenvalues --   -0.85473  -0.85471  -0.85458  -0.85431  -0.84629
  Beta  occ. eigenvalues --   -0.84372  -0.82709  -0.72208  -0.69761  -0.65344
  Beta  occ. eigenvalues --   -0.62341  -0.61731  -0.61664  -0.61638  -0.60837
  Beta  occ. eigenvalues --   -0.58981  -0.58964  -0.58946  -0.58807  -0.58796
  Beta  occ. eigenvalues --   -0.58764  -0.58750  -0.58693  -0.58562  -0.57353
  Beta  occ. eigenvalues --   -0.57205  -0.57156  -0.57029  -0.56937  -0.56510
  Beta  occ. eigenvalues --   -0.56428  -0.56386  -0.55838  -0.55628  -0.55347
  Beta  occ. eigenvalues --   -0.55338  -0.55321  -0.54657  -0.54161  -0.54132
  Beta  occ. eigenvalues --   -0.53960  -0.53682  -0.53638  -0.53606  -0.52828
  Beta  occ. eigenvalues --   -0.52664  -0.52599  -0.52487  -0.52461  -0.51471
  Beta  occ. eigenvalues --   -0.51456  -0.51447  -0.51323  -0.51256  -0.51008
  Beta  occ. eigenvalues --   -0.50573  -0.50479  -0.50470  -0.50343  -0.50248
  Beta  occ. eigenvalues --   -0.50174  -0.50042  -0.50030  -0.49969  -0.49702
  Beta  occ. eigenvalues --   -0.49637  -0.49587  -0.49501  -0.49482  -0.49283
  Beta  occ. eigenvalues --   -0.49217  -0.49201  -0.49111  -0.49079  -0.48997
  Beta  occ. eigenvalues --   -0.48712  -0.48553  -0.48534  -0.48464  -0.47853
  Beta  occ. eigenvalues --   -0.47624  -0.47585  -0.46059  -0.45908  -0.45875
  Beta  occ. eigenvalues --   -0.45816  -0.45676  -0.45574  -0.45227  -0.45168
  Beta  occ. eigenvalues --   -0.45153  -0.45055  -0.44796  -0.44595  -0.44473
  Beta  occ. eigenvalues --   -0.44427  -0.44422  -0.44279  -0.44205  -0.44179
  Beta  occ. eigenvalues --   -0.43452  -0.43236  -0.42498  -0.42459  -0.42413
  Beta  occ. eigenvalues --   -0.42303  -0.42254  -0.42142  -0.42130  -0.41631
  Beta  occ. eigenvalues --   -0.41609  -0.41571  -0.41408  -0.41045  -0.40951
  Beta  occ. eigenvalues --   -0.40758  -0.40710  -0.40683  -0.40369  -0.40354
  Beta  occ. eigenvalues --   -0.40318  -0.40166  -0.40154  -0.40142  -0.39809
  Beta  occ. eigenvalues --   -0.39626  -0.39365  -0.39170  -0.39092  -0.39088
  Beta  occ. eigenvalues --   -0.38902  -0.38854  -0.38813  -0.38745  -0.38702
  Beta  occ. eigenvalues --   -0.38652  -0.38306  -0.38278  -0.38235  -0.37641
  Beta  occ. eigenvalues --   -0.37218  -0.37181  -0.35647  -0.35601  -0.33963
  Beta  occ. eigenvalues --   -0.30876
  Beta virt. eigenvalues --   -0.06373  -0.06315  -0.04868  -0.04833  -0.04742
  Beta virt. eigenvalues --   -0.01514  -0.01410  -0.01370  -0.01144  -0.00919
  Beta virt. eigenvalues --   -0.00914  -0.00876  -0.00151  -0.00080  -0.00043

 Mulliken charges and spin densities:
               1          2
     1  Cl  -0.351968  -0.603021
     2  C   -0.035290  -0.097733
     3  C    0.012251   0.058767
     4  C   -0.034926  -0.093543
     5  C   -0.031524   0.059610
     6  C    0.008253  -0.117633
     7  C   -0.047633   0.059731
     8  H    0.050849   0.004255
     9  H    0.050918   0.004011
    10  H    0.056111  -0.002129
    11  H    0.057220   0.005164
    12  H    0.054593  -0.002098
    13  C    0.006726  -0.266412
    14  C   -0.042897  -0.017420
    15  H    0.077037   0.010923
    16  H    0.094870   0.001139
    17  H    0.088451  -0.001980
    18  O   -0.672629  -0.000567
    19  O   -0.671725  -0.000530
    20  O   -0.666518  -0.001599
    21  O   -0.673144  -0.000543
    22  W    1.717316   0.000357
    23  W    1.662331   0.000483
    24  W    1.674174   0.000166
    25  W    1.682952   0.000217
    26  W    1.663717   0.002703
    27  W    1.710703   0.002435
    28  W    1.611552   0.003337
    29  W    1.673491   0.002781
    30  O   -0.350099  -0.000527
    31  O   -0.394209  -0.000572
    32  O   -0.396209  -0.000613
    33  O   -0.388494  -0.000571
    34  O   -0.672475  -0.000278
    35  O   -0.678469  -0.000015
    36  O   -0.670578  -0.000120
    37  O   -0.673118  -0.000183
    38  O   -0.397668   0.002124
    39  O   -0.395039   0.002163
    40  O   -0.340555   0.000257
    41  O   -0.395095   0.002134
    42  O   -0.678110   0.000032
    43  O   -0.672797   0.000135
    44  O   -0.669033   0.000254
    45  O   -0.674412   0.000081
    46  O   -0.397841   0.002265
    47  O   -0.352101   0.002138
    48  O   -0.394625   0.001797
    49  O   -0.392408   0.002292
    50  W    1.660130   0.002810
    51  W    1.666192   0.002707
    52  W    1.677648   0.003953
    53  W    1.671854   0.002658
    54  O   -0.724136   0.000108
    55  O   -0.706561   0.000016
    56  O   -0.722870   0.000154
    57  O   -0.721875   0.000073
    58  O   -0.703976   0.000072
    59  O   -0.724390   0.000156
    60  O   -0.723606   0.000210
    61  O   -0.718886   0.000198
    62  O   -0.723903  -0.000185
    63  O   -0.706477  -0.000059
    64  O   -0.725026  -0.000203
    65  O   -0.724745  -0.000205
    66  O   -0.884445   0.005313
    67  O   -0.884539   0.007307
    68  O   -0.881694   0.007147
    69  O   -0.889964   0.006462
    70  K    0.849985   0.000192
    71  K    0.848871   0.000216
    72  K    0.846941   0.000214
    73  V    1.203549   0.937022
 Sum of Mulliken charges =  -1.00000  -0.00000

 Dipole moment (field-independent basis, Debye):
    X=             28.0372    Y=            -13.6664    Z=            -30.6915  Tot=             43.7587
 Quadrupole moment (field-independent basis, Debye-Ang):
   XX=           -758.4594   YY=           -711.6186   ZZ=           -781.5194
   XY=            126.5822   XZ=            173.5864   YZ=            -92.6324

 Normal termination of Gaussian 16 at Sun Jun  2 22:50:20 2024.
