 Gaussian 16, Revision C.01,
 Gaussian 16:  ES64L-G16RevC.01  3-Jul-2019

 ----------------------------------------------------------------------
 # def2svp wb97xd scrf=(smd,solvent=acetonitrile) g09default scf=(xqc,m
 axcycle=64) force guess=read nosymm
 ----------------------------------------------------------------------

 ----------
 Title Card
 ----------
 Symbolic Z-matrix:
 Charge = -1 Multiplicity = 1

                          Input orientation:
 ---------------------------------------------------------------------
 Center     Atomic      Atomic             Coordinates (Angstroms)
 Number     Number       Type             X           Y           Z
 ---------------------------------------------------------------------
      1         17           0       -9.870476    7.578031   10.380634
      2          6           0       -8.312469    4.254503   12.239480
      3          6           0       -9.072929    3.939190   11.100149
      4          6           0      -10.008765    2.892701   11.195557
      5          6           0      -10.183924    2.191811   12.384086
      6          6           0       -9.426088    2.522143   13.508019
      7          6           0       -8.485629    3.550875   13.428067
      8          1           0       -7.573861    5.059785   12.198791
      9          1           0      -10.598342    2.628766   10.312470
     10          1           0      -10.912222    1.378273   12.433631
     11          1           0       -9.559147    1.971903   14.441567
     12          1           0       -7.882893    3.808327   14.303284
     13          6           0       -8.923018    4.637948    9.827415
     14          6           0       -8.104948    5.671359    9.587057
     15          1           0       -9.611100    4.321217    9.038633
     16          1           0       -8.049685    6.120590    8.594318
     17          1           0       -7.374063    6.041469   10.310980
     18          8           0       -0.996854   -1.760165    7.449844
     19          8           0       -8.424055   -1.327518    7.456341
     20          8           0       -7.069964    1.348249   10.502862
     21          8           0       -2.329376   -4.359512   10.572027
     22         74           0       -3.427174    0.752042    6.518243
     23         74           0       -6.019605   -3.828873    6.596634
     24         74           0       -3.638528    0.928324   11.391252
     25         74           0       -5.774291   -3.872898   11.461664
     26         74           0       -2.471740   -2.540576    6.372515
     27         74           0       -6.947597   -0.536784    6.348445
     28         74           0       -6.826715   -0.249881   11.603432
     29         74           0       -2.577389   -2.692081   11.632725
     30          8           0       -3.208483    1.947761    5.352132
     31          8           0       -6.135157   -5.084462    5.464406
     32          8           0       -2.706552    1.764217   12.534192
     33          8           0       -6.697894   -4.674575   12.635700
     34          8           0       -2.688220   -0.861766    5.593516
     35          8           0       -6.724409   -2.274764    5.634713
     36          8           0       -5.326184    0.577817   12.363349
     37          8           0       -4.066657   -3.519449   12.410030
     38          8           0        0.293735   -0.004576    9.285731
     39          8           0       -9.715426   -3.014598    9.347835
     40          8           0       -6.445426    3.414528    8.660247
     41          8           0       -2.967416   -6.445487    8.736582
     42          8           0       -1.803828    0.778504    7.487891
     43          8           0       -7.624162   -3.869400    7.560596
     44          8           0       -4.553404    2.229954   10.427596
     45          8           0       -4.855529   -5.215188   10.525293
     46          8           0       -1.652046   -3.479720    5.224193
     47          8           0       -7.816491    0.267082    5.150980
     48          8           0       -8.035977   -0.183849   12.784633
     49          8           0       -1.343365   -2.789568   12.790365
     50         74           0       -1.253910   -0.529850    8.837580
     51         74           0       -8.170560   -2.497192    8.881348
     52         74           0       -5.964938    1.858129    9.056568
     53         74           0       -3.453312   -4.880471    9.169652
     54          8           0       -4.243219   -3.072221    6.090704
     55          8           0       -5.170250   -0.053091    6.039149
     56          8           0       -6.166834   -1.990860   11.903511
     57          8           0       -3.214536   -0.958124   11.910402
     58          8           0       -4.399993    1.587884    7.867362
     59          8           0       -5.010139   -4.645609    7.949708
     60          8           0       -2.366122    0.587463   10.060632
     61          8           0       -7.046219   -3.594099   10.120684
     62          8           0       -2.573220   -3.859314    7.870498
     63          8           0       -6.858152    0.782869    7.811497
     64          8           0       -7.843219   -1.161285   10.152069
     65          8           0       -1.578710   -1.844356   10.142962
     66          8           0       -3.393293   -1.135406    8.028671
     67          8           0       -6.026668   -1.938138    8.054394
     68          8           0       -5.144582   -0.204075    9.935993
     69          8           0       -4.248841   -2.808654    9.969624
     70         19           0       -3.245252   -6.074843    5.698290
     71         19           0       -0.192710    0.019667   12.317276
     72         19           0       -9.222531   -2.920192   12.371185
     73         23           0       -4.705829   -1.518322    8.996018
 ---------------------------------------------------------------------

 SCF Done:  E(RwB97XD) =  -7327.69276504     A.U. after   14 cycles

 Alpha  occ. eigenvalues -- -197.27673-129.99945-129.99922-129.99830-101.48130
 Alpha  occ. eigenvalues --  -22.60967 -19.32799 -19.32786 -19.32784 -19.32768
 Alpha  occ. eigenvalues --  -19.30667 -19.30662 -19.30649 -19.30645 -19.30633
 Alpha  occ. eigenvalues --  -19.30602 -19.30601 -19.30596 -19.30505 -19.30279
 Alpha  occ. eigenvalues --  -19.30270 -19.30064 -19.29197 -19.29185 -19.29181
 Alpha  occ. eigenvalues --  -19.29161 -19.29155 -19.29153 -19.29146 -19.29123
 Alpha  occ. eigenvalues --  -19.29115 -19.29112 -19.29108 -19.29080 -19.29044
 Alpha  occ. eigenvalues --  -19.29039 -19.29027 -19.29015 -19.28989 -19.28986
 Alpha  occ. eigenvalues --  -19.28951 -19.28897 -19.28881 -19.28880 -19.28833
 Alpha  occ. eigenvalues --  -19.28759 -19.09903 -19.09894 -19.09887 -13.37340
 Alpha  occ. eigenvalues --  -13.37317 -13.37212 -10.70271 -10.70263 -10.70263
 Alpha  occ. eigenvalues --  -10.70248 -10.70240 -10.70239 -10.70145 -10.70136
 Alpha  occ. eigenvalues --  -10.70134 -10.29265 -10.29062 -10.28993 -10.28633
 Alpha  occ. eigenvalues --  -10.28490 -10.28482 -10.27698 -10.25961  -9.38632
 Alpha  occ. eigenvalues --   -7.13475  -7.13397  -7.13386  -3.23178  -3.23162
 Alpha  occ. eigenvalues --   -3.23153  -3.23140  -3.23130  -3.23110  -3.23090
 Alpha  occ. eigenvalues --   -3.23084  -3.23039  -3.22825  -3.22794  -3.22521
 Alpha  occ. eigenvalues --   -2.90628  -1.93159  -1.93099  -1.93079  -1.87651
 Alpha  occ. eigenvalues --   -1.87574  -1.87562  -1.87514  -1.87419  -1.87399
 Alpha  occ. eigenvalues --   -1.87376  -1.87365  -1.87324  -1.87177  -1.87142
 Alpha  occ. eigenvalues --   -1.86962  -1.86490  -1.86371  -1.86361  -1.86346
 Alpha  occ. eigenvalues --   -1.86311  -1.86282  -1.86199  -1.86175  -1.86156
 Alpha  occ. eigenvalues --   -1.86151  -1.86120  -1.86100  -1.86019  -1.85995
 Alpha  occ. eigenvalues --   -1.85976  -1.85948  -1.85912  -1.85861  -1.85842
 Alpha  occ. eigenvalues --   -1.85767  -1.85746  -1.85652  -1.85508  -1.85424
 Alpha  occ. eigenvalues --   -1.51047  -1.51025  -1.50923  -1.12535  -1.10711
 Alpha  occ. eigenvalues --   -1.10611  -1.10600  -1.08636  -1.08339  -1.08298
 Alpha  occ. eigenvalues --   -1.08109  -1.07255  -1.07185  -1.07182  -1.06734
 Alpha  occ. eigenvalues --   -1.06726  -1.06697  -1.06121  -1.06109  -1.05277
 Alpha  occ. eigenvalues --   -1.05259  -1.04860  -1.04846  -1.04835  -1.04172
 Alpha  occ. eigenvalues --   -1.04161  -1.04125  -1.04015  -1.04001  -1.03975
 Alpha  occ. eigenvalues --   -1.03899  -1.03871  -1.03835  -1.03745  -1.03717
 Alpha  occ. eigenvalues --   -1.03594  -1.03488  -1.03249  -1.03230  -1.03076
 Alpha  occ. eigenvalues --   -1.03025  -1.02952  -1.02877  -0.93969  -0.86542
 Alpha  occ. eigenvalues --   -0.86522  -0.86430  -0.86332  -0.86327  -0.86309
 Alpha  occ. eigenvalues --   -0.86304  -0.86211  -0.86198  -0.85978  -0.82452
 Alpha  occ. eigenvalues --   -0.79321  -0.71425  -0.69278  -0.67642  -0.64391
 Alpha  occ. eigenvalues --   -0.63767  -0.63703  -0.63682  -0.62934  -0.62917
 Alpha  occ. eigenvalues --   -0.62755  -0.62557  -0.62375  -0.62275  -0.61490
 Alpha  occ. eigenvalues --   -0.61391  -0.61372  -0.61272  -0.61084  -0.61074
 Alpha  occ. eigenvalues --   -0.61028  -0.60283  -0.59260  -0.59186  -0.59132
 Alpha  occ. eigenvalues --   -0.59084  -0.59060  -0.58260  -0.57870  -0.57845
 Alpha  occ. eigenvalues --   -0.57767  -0.56793  -0.56745  -0.56691  -0.56140
 Alpha  occ. eigenvalues --   -0.56108  -0.55980  -0.55635  -0.54820  -0.54757
 Alpha  occ. eigenvalues --   -0.54733  -0.54207  -0.54128  -0.54066  -0.54054
 Alpha  occ. eigenvalues --   -0.53947  -0.53932  -0.53298  -0.53245  -0.52999
 Alpha  occ. eigenvalues --   -0.52946  -0.52807  -0.52667  -0.52618  -0.52605
 Alpha  occ. eigenvalues --   -0.52562  -0.52473  -0.52424  -0.52093  -0.51464
 Alpha  occ. eigenvalues --   -0.51435  -0.51264  -0.51225  -0.51204  -0.51154
 Alpha  occ. eigenvalues --   -0.51126  -0.51028  -0.50907  -0.50719  -0.50697
 Alpha  occ. eigenvalues --   -0.50642  -0.50526  -0.49878  -0.49852  -0.49243
 Alpha  occ. eigenvalues --   -0.49216  -0.49186  -0.49102  -0.49050  -0.48922
 Alpha  occ. eigenvalues --   -0.48757  -0.47953  -0.47923  -0.47798  -0.47281
 Alpha  occ. eigenvalues --   -0.47243  -0.47189  -0.47108  -0.46913  -0.46850
 Alpha  occ. eigenvalues --   -0.46746  -0.46439  -0.46388  -0.46302  -0.45924
 Alpha  occ. eigenvalues --   -0.45890  -0.45841  -0.45277  -0.44995  -0.44814
 Alpha  occ. eigenvalues --   -0.44757  -0.44037  -0.43995  -0.43858  -0.43228
 Alpha  occ. eigenvalues --   -0.43171  -0.43086  -0.43057  -0.43035  -0.42986
 Alpha  occ. eigenvalues --   -0.42655  -0.42638  -0.42628  -0.42498  -0.42472
 Alpha  occ. eigenvalues --   -0.42461  -0.42449  -0.42324  -0.42271  -0.42228
 Alpha  occ. eigenvalues --   -0.42202  -0.42008  -0.41948  -0.41851  -0.41820
 Alpha  occ. eigenvalues --   -0.41151  -0.41143  -0.40985  -0.40723  -0.40462
 Alpha  occ. eigenvalues --   -0.40420  -0.40386  -0.39882  -0.39342  -0.39295
 Alpha  occ. eigenvalues --   -0.36533  -0.32257  -0.29226  -0.25066  -0.24966
 Alpha  occ. eigenvalues --   -0.21853
 Alpha virt. eigenvalues --   -0.08223  -0.08146  -0.08033  -0.07809  -0.06741
 Alpha virt. eigenvalues --   -0.06709  -0.06587  -0.03674  -0.03558  -0.03460
 Alpha virt. eigenvalues --   -0.03209  -0.03004  -0.02959  -0.02828  -0.02636

 Mulliken charges:
               1
     1  Cl  -0.878423
     2  C   -0.093794
     3  C    0.047604
     4  C   -0.085715
     5  C   -0.033657
     6  C   -0.040258
     7  C   -0.050172
     8  H    0.021966
     9  H    0.024706
    10  H    0.037367
    11  H    0.032405
    12  H    0.036262
    13  C   -0.080003
    14  C    0.052001
    15  H   -0.001500
    16  H    0.026533
    17  H    0.031301
    18  O   -0.659899
    19  O   -0.657883
    20  O   -0.650723
    21  O   -0.659867
    22  W    1.729401
    23  W    1.666476
    24  W    1.677532
    25  W    1.688278
    26  W    1.667394
    27  W    1.724854
    28  W    1.613185
    29  W    1.679447
    30  O   -0.319843
    31  O   -0.366636
    32  O   -0.365894
    33  O   -0.364755
    34  O   -0.660883
    35  O   -0.669426
    36  O   -0.658873
    37  O   -0.661367
    38  O   -0.365775
    39  O   -0.366262
    40  O   -0.283175
    41  O   -0.365638
    42  O   -0.668397
    43  O   -0.660395
    44  O   -0.655923
    45  O   -0.662903
    46  O   -0.366127
    47  O   -0.318876
    48  O   -0.352811
    49  O   -0.365285
    50  W    1.664938
    51  W    1.668403
    52  W    1.665989
    53  W    1.675982
    54  O   -0.721839
    55  O   -0.705154
    56  O   -0.725019
    57  O   -0.719248
    58  O   -0.702321
    59  O   -0.724902
    60  O   -0.722846
    61  O   -0.720483
    62  O   -0.721963
    63  O   -0.706224
    64  O   -0.721173
    65  O   -0.725587
    66  O   -0.801418
    67  O   -0.800831
    68  O   -0.796997
    69  O   -0.811603
    70  K    0.858732
    71  K    0.858221
    72  K    0.853829
    73  V    1.215943
 Sum of Mulliken charges =  -1.00000

 Dipole moment (field-independent basis, Debye):
    X=             51.0428    Y=            -47.1250    Z=            -38.7184  Tot=             79.5314
 Quadrupole moment (field-independent basis, Debye-Ang):
   XX=          -1062.7710   YY=           -834.1243   ZZ=           -917.7898
   XY=            417.2061   XZ=            457.5579   YZ=           -434.1955

 Normal termination of Gaussian 16 at Sat Jun  1 13:32:52 2024.
