 Gaussian 16, Revision C.01,
 Gaussian 16:  ES64L-G16RevC.01  3-Jul-2019

 ----------------------------------------------------------------------
 # def2svp wb97xd scrf=(smd,solvent=acetonitrile) g09default scf=(xqc,m
 axcycle=64) force guess=read nosymm
 ----------------------------------------------------------------------

 ----------
 Title Card
 ----------
 Symbolic Z-matrix:
 Charge = -1 Multiplicity = 1

                          Input orientation:
 ---------------------------------------------------------------------
 Center     Atomic      Atomic             Coordinates (Angstroms)
 Number     Number       Type             X           Y           Z
 ---------------------------------------------------------------------
      1         17           0       -9.870476    7.578031   10.380634
      2          6           0       -8.312469    4.254503   12.239480
      3          6           0       -9.072929    3.939190   11.100149
      4          6           0      -10.008765    2.892701   11.195557
      5          6           0      -10.183924    2.191811   12.384086
      6          6           0       -9.426088    2.522143   13.508019
      7          6           0       -8.485629    3.550875   13.428067
      8          1           0       -7.573861    5.059785   12.198791
      9          1           0      -10.598342    2.628766   10.312470
     10          1           0      -10.912222    1.378273   12.433631
     11          1           0       -9.559147    1.971903   14.441567
     12          1           0       -7.882893    3.808327   14.303284
     13          6           0       -8.923018    4.637948    9.827415
     14          6           0       -8.104948    5.671359    9.587057
     15          1           0       -9.611100    4.321217    9.038633
     16          1           0       -8.049685    6.120590    8.594318
     17          1           0       -7.374063    6.041469   10.310980
     18          8           0       -0.996854   -1.760165    7.449844
     19          8           0       -8.424055   -1.327518    7.456341
     20          8           0       -7.069964    1.348249   10.502862
     21          8           0       -2.329376   -4.359512   10.572027
     22         74           0       -3.427174    0.752042    6.518243
     23         74           0       -6.019605   -3.828873    6.596634
     24         74           0       -3.638528    0.928324   11.391252
     25         74           0       -5.774291   -3.872898   11.461664
     26         74           0       -2.471740   -2.540576    6.372515
     27         74           0       -6.947597   -0.536784    6.348445
     28         74           0       -6.826715   -0.249881   11.603432
     29         74           0       -2.577389   -2.692081   11.632725
     30          8           0       -3.208483    1.947761    5.352132
     31          8           0       -6.135157   -5.084462    5.464406
     32          8           0       -2.706552    1.764217   12.534192
     33          8           0       -6.697894   -4.674575   12.635700
     34          8           0       -2.688220   -0.861766    5.593516
     35          8           0       -6.724409   -2.274764    5.634713
     36          8           0       -5.326184    0.577817   12.363349
     37          8           0       -4.066657   -3.519449   12.410030
     38          8           0        0.293735   -0.004576    9.285731
     39          8           0       -9.715426   -3.014598    9.347835
     40          8           0       -6.445426    3.414528    8.660247
     41          8           0       -2.967416   -6.445487    8.736582
     42          8           0       -1.803828    0.778504    7.487891
     43          8           0       -7.624162   -3.869400    7.560596
     44          8           0       -4.553404    2.229954   10.427596
     45          8           0       -4.855529   -5.215188   10.525293
     46          8           0       -1.652046   -3.479720    5.224193
     47          8           0       -7.816491    0.267082    5.150980
     48          8           0       -8.035977   -0.183849   12.784633
     49          8           0       -1.343365   -2.789568   12.790365
     50         74           0       -1.253910   -0.529850    8.837580
     51         74           0       -8.170560   -2.497192    8.881348
     52         74           0       -5.964938    1.858129    9.056568
     53         74           0       -3.453312   -4.880471    9.169652
     54          8           0       -4.243219   -3.072221    6.090704
     55          8           0       -5.170250   -0.053091    6.039149
     56          8           0       -6.166834   -1.990860   11.903511
     57          8           0       -3.214536   -0.958124   11.910402
     58          8           0       -4.399993    1.587884    7.867362
     59          8           0       -5.010139   -4.645609    7.949708
     60          8           0       -2.366122    0.587463   10.060632
     61          8           0       -7.046219   -3.594099   10.120684
     62          8           0       -2.573220   -3.859314    7.870498
     63          8           0       -6.858152    0.782869    7.811497
     64          8           0       -7.843219   -1.161285   10.152069
     65          8           0       -1.578710   -1.844356   10.142962
     66          8           0       -3.393293   -1.135406    8.028671
     67          8           0       -6.026668   -1.938138    8.054394
     68          8           0       -5.144582   -0.204075    9.935993
     69          8           0       -4.248841   -2.808654    9.969624
     70         19           0       -3.245252   -6.074843    5.698290
     71         19           0       -0.192710    0.019667   12.317276
     72         19           0       -9.222531   -2.920192   12.371185
     73         23           0       -4.705829   -1.518322    8.996018
 ---------------------------------------------------------------------

 SCF Done:  E(UwB97XD) =  -7327.69928223     A.U. after   38 cycles

 Alpha  occ. eigenvalues --  -19.23901 -18.92290 -18.91206 -18.91172 -13.36323
 Alpha  occ. eigenvalues --  -13.36304 -13.36262 -10.69252 -10.69246 -10.69246
 Alpha  occ. eigenvalues --  -10.69233 -10.69228 -10.69227 -10.69192 -10.69186
 Alpha  occ. eigenvalues --  -10.69184 -10.32908 -10.32789 -10.31654 -10.30838
 Alpha  occ. eigenvalues --  -10.30793 -10.30782 -10.30450 -10.30355  -9.51267
 Alpha  occ. eigenvalues --   -7.26124  -7.25849  -7.25831  -3.20994  -3.20985
 Alpha  occ. eigenvalues --   -3.20940  -3.20923  -3.20912  -3.20904  -3.20896
 Alpha  occ. eigenvalues --   -3.20873  -3.20851  -3.20841  -3.20754  -3.20735
 Alpha  occ. eigenvalues --   -2.77488  -1.85340  -1.85246  -1.85220  -1.85185
 Alpha  occ. eigenvalues --   -1.85118  -1.85105  -1.85028  -1.85017  -1.84979
 Alpha  occ. eigenvalues --   -1.84970  -1.84938  -1.84908  -1.84289  -1.84178
 Alpha  occ. eigenvalues --   -1.84164  -1.84146  -1.84116  -1.84096  -1.84064
 Alpha  occ. eigenvalues --   -1.84019  -1.83998  -1.83983  -1.83957  -1.83949
 Alpha  occ. eigenvalues --   -1.83857  -1.83812  -1.83797  -1.83790  -1.83779
 Alpha  occ. eigenvalues --   -1.83729  -1.83707  -1.83692  -1.83684  -1.83616
 Alpha  occ. eigenvalues --   -1.83600  -1.83570  -1.80812  -1.80442  -1.80419
 Alpha  occ. eigenvalues --   -1.50046  -1.50026  -1.49987  -1.08459  -1.06866
 Alpha  occ. eigenvalues --   -1.06802  -1.06770  -1.05888  -1.05868  -1.05830
 Alpha  occ. eigenvalues --   -1.04484  -1.04474  -1.04452  -1.03860  -1.03829
 Alpha  occ. eigenvalues --   -1.03344  -1.03188  -1.03146  -1.03132  -1.03023
 Alpha  occ. eigenvalues --   -1.02990  -1.02218  -1.02192  -1.02179  -1.02116
 Alpha  occ. eigenvalues --   -1.02061  -1.02036  -1.02007  -1.01943  -1.01805
 Alpha  occ. eigenvalues --   -1.01701  -1.01673  -1.01640  -1.01566  -1.01513
 Alpha  occ. eigenvalues --   -1.01258  -1.00714  -1.00680  -1.00661  -1.00642
 Alpha  occ. eigenvalues --   -0.99581  -0.99513  -0.99408  -0.96084  -0.89450
 Alpha  occ. eigenvalues --   -0.85520  -0.85497  -0.85471  -0.85341  -0.85336
 Alpha  occ. eigenvalues --   -0.85322  -0.85318  -0.85287  -0.85273  -0.84128
 Alpha  occ. eigenvalues --   -0.82584  -0.80149  -0.71886  -0.69523  -0.65017
 Alpha  occ. eigenvalues --   -0.62162  -0.61549  -0.61510  -0.61469  -0.60611
 Alpha  occ. eigenvalues --   -0.58874  -0.58867  -0.58845  -0.58787  -0.58736
 Alpha  occ. eigenvalues --   -0.58676  -0.58671  -0.58614  -0.58408  -0.57213
 Alpha  occ. eigenvalues --   -0.57159  -0.57125  -0.56894  -0.56784  -0.56303
 Alpha  occ. eigenvalues --   -0.56263  -0.56218  -0.55771  -0.55657  -0.55253
 Alpha  occ. eigenvalues --   -0.55240  -0.55209  -0.54433  -0.54155  -0.54106
 Alpha  occ. eigenvalues --   -0.53945  -0.53606  -0.53525  -0.53509  -0.52729
 Alpha  occ. eigenvalues --   -0.52631  -0.52627  -0.52528  -0.52489  -0.51534
 Alpha  occ. eigenvalues --   -0.51503  -0.51476  -0.51451  -0.51393  -0.50752
 Alpha  occ. eigenvalues --   -0.50536  -0.50507  -0.50457  -0.50353  -0.50279
 Alpha  occ. eigenvalues --   -0.50264  -0.50134  -0.50095  -0.50036  -0.49823
 Alpha  occ. eigenvalues --   -0.49758  -0.49722  -0.49417  -0.49386  -0.49236
 Alpha  occ. eigenvalues --   -0.49173  -0.49109  -0.49044  -0.48997  -0.48961
 Alpha  occ. eigenvalues --   -0.48851  -0.48700  -0.48624  -0.48552  -0.47690
 Alpha  occ. eigenvalues --   -0.47639  -0.47101  -0.46416  -0.46012  -0.45992
 Alpha  occ. eigenvalues --   -0.45820  -0.45748  -0.45703  -0.45530  -0.45174
 Alpha  occ. eigenvalues --   -0.45146  -0.45134  -0.44801  -0.44587  -0.44373
 Alpha  occ. eigenvalues --   -0.44323  -0.44306  -0.44148  -0.44128  -0.44056
 Alpha  occ. eigenvalues --   -0.43260  -0.43007  -0.42434  -0.42412  -0.42299
 Alpha  occ. eigenvalues --   -0.42161  -0.42040  -0.42033  -0.42008  -0.41618
 Alpha  occ. eigenvalues --   -0.41577  -0.41566  -0.41048  -0.40975  -0.40742
 Alpha  occ. eigenvalues --   -0.40700  -0.40672  -0.40405  -0.40367  -0.40330
 Alpha  occ. eigenvalues --   -0.40191  -0.40161  -0.40143  -0.40098  -0.39840
 Alpha  occ. eigenvalues --   -0.39357  -0.39145  -0.39082  -0.39047  -0.38885
 Alpha  occ. eigenvalues --   -0.38838  -0.38775  -0.38720  -0.38472  -0.38454
 Alpha  occ. eigenvalues --   -0.38237  -0.38191  -0.38157  -0.38081  -0.37171
 Alpha  occ. eigenvalues --   -0.37083  -0.33963  -0.33895  -0.33454  -0.31161
 Alpha  occ. eigenvalues --   -0.24310
 Alpha virt. eigenvalues --   -0.09622  -0.06152  -0.06024  -0.04646  -0.04588
 Alpha virt. eigenvalues --   -0.04458  -0.01370  -0.01285  -0.01225  -0.00862
 Alpha virt. eigenvalues --   -0.00665  -0.00641  -0.00590   0.00042   0.00118

  Beta  occ. eigenvalues -- -197.08898-129.98923-129.98904-129.98874-101.61239
  Beta  occ. eigenvalues --  -22.41487 -19.28521 -19.28479 -19.28454 -19.28447
  Beta  occ. eigenvalues --  -19.28407 -19.28387 -19.28381 -19.28367 -19.28342
  Beta  occ. eigenvalues --  -19.28306 -19.28231 -19.28152 -19.26913 -19.26896
  Beta  occ. eigenvalues --  -19.26886 -19.26866 -19.26833 -19.26824 -19.26805
  Beta  occ. eigenvalues --  -19.26801 -19.26800 -19.26795 -19.26769 -19.26754
  Beta  occ. eigenvalues --  -19.26748 -19.26742 -19.26726 -19.26712 -19.26705
  Beta  occ. eigenvalues --  -19.26702 -19.26696 -19.26685 -19.26664 -19.26642
  Beta  occ. eigenvalues --  -19.26624 -19.26564 -19.23999 -19.23922 -19.23914
  Beta  occ. eigenvalues --  -19.23874 -18.91951 -18.89772 -18.89705 -13.36323
  Beta  occ. eigenvalues --  -13.36304 -13.36262 -10.69252 -10.69246 -10.69246
  Beta  occ. eigenvalues --  -10.69233 -10.69228 -10.69227 -10.69192 -10.69186
  Beta  occ. eigenvalues --  -10.69184 -10.33254 -10.32967 -10.31577 -10.30944
  Beta  occ. eigenvalues --  -10.30904 -10.30898 -10.30390 -10.30292  -9.51691
  Beta  occ. eigenvalues --   -7.27431  -7.26138  -7.26119  -3.20993  -3.20980
  Beta  occ. eigenvalues --   -3.20940  -3.20923  -3.20905  -3.20897  -3.20889
  Beta  occ. eigenvalues --   -3.20866  -3.20849  -3.20834  -3.20753  -3.20729
  Beta  occ. eigenvalues --   -2.73470  -1.85335  -1.85240  -1.85215  -1.85176
  Beta  occ. eigenvalues --   -1.85117  -1.85097  -1.85022  -1.85011  -1.84970
  Beta  occ. eigenvalues --   -1.84962  -1.84930  -1.84899  -1.84286  -1.84175
  Beta  occ. eigenvalues --   -1.84160  -1.84143  -1.84113  -1.84092  -1.84061
  Beta  occ. eigenvalues --   -1.84015  -1.83995  -1.83980  -1.83954  -1.83945
  Beta  occ. eigenvalues --   -1.83854  -1.83809  -1.83794  -1.83787  -1.83776
  Beta  occ. eigenvalues --   -1.83726  -1.83704  -1.83689  -1.83680  -1.83614
  Beta  occ. eigenvalues --   -1.83597  -1.83568  -1.79506  -1.74821  -1.74676
  Beta  occ. eigenvalues --   -1.50046  -1.50026  -1.49987  -1.08444  -1.06850
  Beta  occ. eigenvalues --   -1.06785  -1.06746  -1.05886  -1.05867  -1.05829
  Beta  occ. eigenvalues --   -1.04486  -1.04473  -1.04450  -1.03862  -1.03828
  Beta  occ. eigenvalues --   -1.03285  -1.03171  -1.03126  -1.03103  -1.03015
  Beta  occ. eigenvalues --   -1.02977  -1.02205  -1.02181  -1.02160  -1.02101
  Beta  occ. eigenvalues --   -1.02057  -1.02022  -1.02005  -1.01935  -1.01799
  Beta  occ. eigenvalues --   -1.01697  -1.01672  -1.01640  -1.01555  -1.01510
  Beta  occ. eigenvalues --   -1.01258  -1.00714  -1.00677  -1.00656  -1.00592
  Beta  occ. eigenvalues --   -0.99418  -0.99322  -0.99271  -0.96328  -0.90327
  Beta  occ. eigenvalues --   -0.85520  -0.85497  -0.85471  -0.85341  -0.85336
  Beta  occ. eigenvalues --   -0.85322  -0.85317  -0.85287  -0.85273  -0.84273
  Beta  occ. eigenvalues --   -0.83734  -0.82434  -0.72211  -0.69641  -0.65308
  Beta  occ. eigenvalues --   -0.62162  -0.61548  -0.61510  -0.61468  -0.60836
  Beta  occ. eigenvalues --   -0.58872  -0.58864  -0.58843  -0.58730  -0.58676
  Beta  occ. eigenvalues --   -0.58664  -0.58639  -0.58591  -0.58408  -0.57168
  Beta  occ. eigenvalues --   -0.57093  -0.57014  -0.56974  -0.56784  -0.56303
  Beta  occ. eigenvalues --   -0.56239  -0.56190  -0.55615  -0.55395  -0.55235
  Beta  occ. eigenvalues --   -0.55218  -0.55203  -0.54644  -0.54149  -0.54099
  Beta  occ. eigenvalues --   -0.53939  -0.53583  -0.53503  -0.53471  -0.52765
  Beta  occ. eigenvalues --   -0.52660  -0.52614  -0.52518  -0.52483  -0.51518
  Beta  occ. eigenvalues --   -0.51455  -0.51450  -0.51426  -0.51372  -0.50994
  Beta  occ. eigenvalues --   -0.50473  -0.50459  -0.50407  -0.50330  -0.50233
  Beta  occ. eigenvalues --   -0.50162  -0.50103  -0.50086  -0.50007  -0.49773
  Beta  occ. eigenvalues --   -0.49726  -0.49708  -0.49410  -0.49378  -0.49235
  Beta  occ. eigenvalues --   -0.49158  -0.49115  -0.49016  -0.48981  -0.48945
  Beta  occ. eigenvalues --   -0.48838  -0.48693  -0.48639  -0.48547  -0.47865
  Beta  occ. eigenvalues --   -0.47604  -0.47582  -0.45951  -0.45866  -0.45813
  Beta  occ. eigenvalues --   -0.45724  -0.45647  -0.45507  -0.45181  -0.45156
  Beta  occ. eigenvalues --   -0.45133  -0.44997  -0.44801  -0.44588  -0.44352
  Beta  occ. eigenvalues --   -0.44297  -0.44286  -0.44115  -0.44097  -0.44044
  Beta  occ. eigenvalues --   -0.43246  -0.43127  -0.42582  -0.42360  -0.42296
  Beta  occ. eigenvalues --   -0.42184  -0.42107  -0.42001  -0.41965  -0.41770
  Beta  occ. eigenvalues --   -0.41607  -0.41539  -0.41509  -0.41046  -0.40936
  Beta  occ. eigenvalues --   -0.40687  -0.40650  -0.40640  -0.40379  -0.40355
  Beta  occ. eigenvalues --   -0.40308  -0.40166  -0.40143  -0.40124  -0.39779
  Beta  occ. eigenvalues --   -0.39503  -0.39358  -0.39076  -0.39006  -0.38959
  Beta  occ. eigenvalues --   -0.38790  -0.38753  -0.38704  -0.38452  -0.38419
  Beta  occ. eigenvalues --   -0.38311  -0.38233  -0.38166  -0.38119  -0.37173
  Beta  occ. eigenvalues --   -0.37080  -0.36299  -0.34742  -0.34673  -0.33767
  Beta  occ. eigenvalues --   -0.30023
  Beta virt. eigenvalues --   -0.06152  -0.06025  -0.04645  -0.04587  -0.04457
  Beta virt. eigenvalues --   -0.01367  -0.01281  -0.01221  -0.00856  -0.00658
  Beta virt. eigenvalues --   -0.00641  -0.00588   0.00041   0.00125   0.00173

 Mulliken charges and spin densities:
               1          2
     1  Cl  -0.395867  -0.543594
     2  C   -0.038433  -0.100097
     3  C    0.008188   0.076729
     4  C   -0.033578  -0.097063
     5  C   -0.032389   0.061547
     6  C    0.004987  -0.112132
     7  C   -0.048678   0.059948
     8  H    0.046378   0.004248
     9  H    0.049234   0.004146
    10  H    0.054173  -0.002219
    11  H    0.054858   0.004942
    12  H    0.052939  -0.002126
    13  C    0.016206  -0.306217
    14  C    0.000238  -0.061592
    15  H    0.072605   0.013040
    16  H    0.097176   0.002740
    17  H    0.099700   0.002437
    18  O   -0.668686  -0.000491
    19  O   -0.666836  -0.000427
    20  O   -0.662169  -0.001924
    21  O   -0.668912  -0.000463
    22  W    1.712293   0.000364
    23  W    1.651139   0.000593
    24  W    1.664765   0.000234
    25  W    1.673499   0.000237
    26  W    1.652578   0.003193
    27  W    1.706094   0.002841
    28  W    1.604895   0.003707
    29  W    1.664385   0.003319
    30  O   -0.348946  -0.000528
    31  O   -0.394463  -0.000549
    32  O   -0.393466  -0.000597
    33  O   -0.392829  -0.000549
    34  O   -0.669159  -0.000376
    35  O   -0.676443  -0.000090
    36  O   -0.667526  -0.000216
    37  O   -0.670291  -0.000289
    38  O   -0.395041   0.002187
    39  O   -0.395695   0.002236
    40  O   -0.335896  -0.001541
    41  O   -0.395166   0.002205
    42  O   -0.675653   0.000061
    43  O   -0.668876   0.000172
    44  O   -0.664498   0.000308
    45  O   -0.671122   0.000097
    46  O   -0.395591   0.002438
    47  O   -0.349840   0.002314
    48  O   -0.385488   0.001950
    49  O   -0.394904   0.002501
    50  W    1.649639   0.003335
    51  W    1.653226   0.003212
    52  W    1.667517   0.004182
    53  W    1.660339   0.003176
    54  O   -0.718862   0.000163
    55  O   -0.702254   0.000035
    56  O   -0.720341   0.000224
    57  O   -0.716428   0.000112
    58  O   -0.699001  -0.000030
    59  O   -0.720979   0.000201
    60  O   -0.719002   0.000282
    61  O   -0.717010   0.000269
    62  O   -0.719812  -0.000214
    63  O   -0.703440  -0.000004
    64  O   -0.719924  -0.000235
    65  O   -0.722996  -0.000244
    66  O   -0.881071   0.006335
    67  O   -0.881268   0.008475
    68  O   -0.877970   0.008151
    69  O   -0.887989   0.007299
    70  K    0.844456   0.000259
    71  K    0.844144   0.000295
    72  K    0.839134   0.000312
    73  V    1.220000   0.926754
 Sum of Mulliken charges =  -1.00000  -0.00000

 Dipole moment (field-independent basis, Debye):
    X=             29.4156    Y=            -12.9484    Z=            -31.1577  Tot=             44.7631
 Quadrupole moment (field-independent basis, Debye-Ang):
   XX=           -785.6066   YY=           -697.7861   ZZ=           -792.2225
   XY=            127.2190   XZ=            191.6517   YZ=            -87.9048

 Normal termination of Gaussian 16 at Sat Jun  1 13:20:39 2024.
