 Gaussian 16, Revision C.01,
 Gaussian 16:  ES64L-G16RevC.01  3-Jul-2019

 ----------------------------------------------------------------------
 # def2svp wb97xd scrf=(smd,solvent=acetonitrile) g09default scf=(xqc,m
 axcycle=64) force guess=read nosymm
 ----------------------------------------------------------------------

 ----------
 Title Card
 ----------
 Symbolic Z-matrix:
 Charge = -1 Multiplicity = 1

                          Input orientation:
 ---------------------------------------------------------------------
 Center     Atomic      Atomic             Coordinates (Angstroms)
 Number     Number       Type             X           Y           Z
 ---------------------------------------------------------------------
      1         17           0       -9.642673    8.267845   10.537241
      2          6           0       -8.356538    4.262423   12.208807
      3          6           0       -9.151834    3.937741   11.093588
      4          6           0      -10.065814    2.875105   11.217086
      5          6           0      -10.207441    2.185689   12.416771
      6          6           0       -9.424939    2.532491   13.519235
      7          6           0       -8.493096    3.566886   13.406187
      8          1           0       -7.622774    5.068878   12.142069
      9          1           0      -10.681757    2.603877   10.355069
     10          1           0      -10.933143    1.372488   12.493129
     11          1           0       -9.530623    1.989580   14.460854
     12          1           0       -7.871048    3.837501   14.263152
     13          6           0       -9.097824    4.681544    9.834343
     14          6           0       -8.428654    5.834075    9.623604
     15          1           0       -9.690685    4.258660    9.015367
     16          1           0       -8.457556    6.325203    8.650360
     17          1           0       -7.789298    6.288416   10.379821
     18          8           0       -0.975401   -1.808511    7.461849
     19          8           0       -8.382604   -1.329834    7.462221
     20          8           0       -7.014310    1.342869   10.477762
     21          8           0       -2.334058   -4.398244   10.555119
     22         74           0       -3.392443    0.698629    6.486978
     23         74           0       -5.989641   -3.828413    6.561136
     24         74           0       -3.601094    0.872158   11.409241
     25         74           0       -5.764063   -3.874113   11.480138
     26         74           0       -2.434163   -2.589788    6.394831
     27         74           0       -6.925626   -0.538510    6.362601
     28         74           0       -6.804876   -0.255827   11.569839
     29         74           0       -2.547372   -2.742450   11.609173
     30          8           0       -3.156174    1.885410    5.310374
     31          8           0       -6.125147   -5.078136    5.418467
     32          8           0       -2.673058    1.710897   12.559944
     33          8           0       -6.681306   -4.678139   12.661519
     34          8           0       -2.661072   -0.915074    5.588542
     35          8           0       -6.697146   -2.272729    5.620410
     36          8           0       -5.294699    0.546664   12.358524
     37          8           0       -4.051403   -3.538659   12.408815
     38          8           0        0.324350   -0.034670    9.274836
     39          8           0       -9.690556   -3.035290    9.321129
     40          8           0       -6.352110    3.424440    8.666955
     41          8           0       -3.004787   -6.495652    8.744663
     42          8           0       -1.770846    0.739330    7.474465
     43          8           0       -7.596734   -3.882997    7.542816
     44          8           0       -4.484757    2.194323   10.424330
     45          8           0       -4.871259   -5.236962   10.528445
     46          8           0       -1.604838   -3.526639    5.243768
     47          8           0       -7.801722    0.269652    5.167106
     48          8           0       -8.022499   -0.161662   12.749912
     49          8           0       -1.316508   -2.864657   12.773800
     50         74           0       -1.236292   -0.549412    8.839456
     51         74           0       -8.129746   -2.533777    8.873440
     52         74           0       -5.874931    1.852765    9.044574
     53         74           0       -3.489713   -4.921185    9.162234
     54          8           0       -4.213867   -3.118243    6.071383
     55          8           0       -5.142247   -0.060562    6.018596
     56          8           0       -6.166126   -2.005878   11.915429
     57          8           0       -3.167377   -0.993040   11.914943
     58          8           0       -4.345765    1.579510    7.838926
     59          8           0       -5.008864   -4.690881    7.924026
     60          8           0       -2.308582    0.560839   10.074974
     61          8           0       -7.045297   -3.617831   10.131500
     62          8           0       -2.572306   -3.912129    7.864809
     63          8           0       -6.802579    0.791171    7.801839
     64          8           0       -7.817347   -1.179538   10.146178
     65          8           0       -1.547057   -1.879469   10.142962
     66          8           0       -3.350309   -1.162738    8.013944
     67          8           0       -6.009980   -1.965027    8.033913
     68          8           0       -5.107466   -0.213117    9.942166
     69          8           0       -4.237169   -2.852105    9.976229
     70         19           0       -3.216471   -6.136058    5.648359
     71         19           0       -0.123230    0.027374   12.320883
     72         19           0       -9.284157   -2.820013   12.418717
     73         23           0       -4.678280   -1.544880    8.990008
 ---------------------------------------------------------------------

 SCF Done:  E(RwB97XD) =  -7327.70196618     A.U. after   12 cycles

 Alpha  occ. eigenvalues -- -197.29388-130.00098-130.00050-129.99996-101.48389
 Alpha  occ. eigenvalues --  -22.62518 -19.33614 -19.33605 -19.33603 -19.33581
 Alpha  occ. eigenvalues --  -19.30730 -19.30695 -19.30693 -19.30684 -19.30679
 Alpha  occ. eigenvalues --  -19.30672 -19.30666 -19.30642 -19.30574 -19.30369
 Alpha  occ. eigenvalues --  -19.30348 -19.30172 -19.29327 -19.29325 -19.29300
 Alpha  occ. eigenvalues --  -19.29292 -19.29277 -19.29274 -19.29249 -19.29227
 Alpha  occ. eigenvalues --  -19.29213 -19.29182 -19.29179 -19.29155 -19.29146
 Alpha  occ. eigenvalues --  -19.29111 -19.29102 -19.29099 -19.29096 -19.29074
 Alpha  occ. eigenvalues --  -19.29071 -19.29036 -19.29002 -19.28976 -19.28957
 Alpha  occ. eigenvalues --  -19.28871 -19.11474 -19.11466 -19.11458 -13.37501
 Alpha  occ. eigenvalues --  -13.37451 -13.37392 -10.70430 -10.70423 -10.70423
 Alpha  occ. eigenvalues --  -10.70381 -10.70374 -10.70372 -10.70323 -10.70316
 Alpha  occ. eigenvalues --  -10.70311 -10.29824 -10.29325 -10.29276 -10.29033
 Alpha  occ. eigenvalues --  -10.28933 -10.28932 -10.28065 -10.27431  -9.38866
 Alpha  occ. eigenvalues --   -7.13693  -7.13642  -7.13636  -3.23321  -3.23320
 Alpha  occ. eigenvalues --   -3.23301  -3.23298  -3.23293  -3.23269  -3.23257
 Alpha  occ. eigenvalues --   -3.23254  -3.23228  -3.22974  -3.22956  -3.22777
 Alpha  occ. eigenvalues --   -2.91776  -1.94162  -1.94130  -1.94118  -1.87722
 Alpha  occ. eigenvalues --   -1.87678  -1.87662  -1.87630  -1.87493  -1.87474
 Alpha  occ. eigenvalues --   -1.87470  -1.87454  -1.87431  -1.87277  -1.87247
 Alpha  occ. eigenvalues --   -1.87094  -1.86631  -1.86513  -1.86502  -1.86485
 Alpha  occ. eigenvalues --   -1.86459  -1.86437  -1.86348  -1.86334  -1.86318
 Alpha  occ. eigenvalues --   -1.86300  -1.86292  -1.86265  -1.86149  -1.86138
 Alpha  occ. eigenvalues --   -1.86125  -1.86116  -1.86044  -1.86029  -1.85992
 Alpha  occ. eigenvalues --   -1.85923  -1.85905  -1.85805  -1.85716  -1.85667
 Alpha  occ. eigenvalues --   -1.51192  -1.51144  -1.51089  -1.13045  -1.11272
 Alpha  occ. eigenvalues --   -1.11188  -1.11187  -1.08966  -1.08533  -1.08494
 Alpha  occ. eigenvalues --   -1.08326  -1.07565  -1.07502  -1.07494  -1.06905
 Alpha  occ. eigenvalues --   -1.06896  -1.06877  -1.06327  -1.06303  -1.05329
 Alpha  occ. eigenvalues --   -1.05322  -1.04986  -1.04981  -1.04968  -1.04204
 Alpha  occ. eigenvalues --   -1.04196  -1.04180  -1.04037  -1.04013  -1.04004
 Alpha  occ. eigenvalues --   -1.03947  -1.03925  -1.03901  -1.03767  -1.03750
 Alpha  occ. eigenvalues --   -1.03623  -1.03563  -1.03306  -1.03270  -1.03127
 Alpha  occ. eigenvalues --   -1.03116  -1.03042  -1.02971  -0.94354  -0.86660
 Alpha  occ. eigenvalues --   -0.86620  -0.86566  -0.86483  -0.86466  -0.86466
 Alpha  occ. eigenvalues --   -0.86426  -0.86411  -0.86378  -0.86342  -0.82798
 Alpha  occ. eigenvalues --   -0.79711  -0.71654  -0.69639  -0.67978  -0.64617
 Alpha  occ. eigenvalues --   -0.63991  -0.63915  -0.63899  -0.63305  -0.63285
 Alpha  occ. eigenvalues --   -0.63168  -0.62906  -0.62671  -0.62603  -0.61983
 Alpha  occ. eigenvalues --   -0.61619  -0.61603  -0.61509  -0.61258  -0.61245
 Alpha  occ. eigenvalues --   -0.61185  -0.60419  -0.59483  -0.59458  -0.59449
 Alpha  occ. eigenvalues --   -0.59411  -0.59367  -0.58577  -0.58008  -0.57974
 Alpha  occ. eigenvalues --   -0.57890  -0.57061  -0.57030  -0.57002  -0.56293
 Alpha  occ. eigenvalues --   -0.56274  -0.56119  -0.55707  -0.54868  -0.54814
 Alpha  occ. eigenvalues --   -0.54770  -0.54510  -0.54243  -0.54113  -0.54105
 Alpha  occ. eigenvalues --   -0.54028  -0.53963  -0.53250  -0.53216  -0.53082
 Alpha  occ. eigenvalues --   -0.53046  -0.52908  -0.52722  -0.52688  -0.52648
 Alpha  occ. eigenvalues --   -0.52620  -0.52512  -0.52469  -0.52401  -0.51619
 Alpha  occ. eigenvalues --   -0.51604  -0.51339  -0.51318  -0.51277  -0.51236
 Alpha  occ. eigenvalues --   -0.51180  -0.51165  -0.50932  -0.50779  -0.50607
 Alpha  occ. eigenvalues --   -0.50587  -0.50578  -0.49896  -0.49886  -0.49302
 Alpha  occ. eigenvalues --   -0.49274  -0.49237  -0.49215  -0.49166  -0.49083
 Alpha  occ. eigenvalues --   -0.48899  -0.48079  -0.48031  -0.47921  -0.47640
 Alpha  occ. eigenvalues --   -0.47392  -0.47295  -0.47252  -0.46998  -0.46955
 Alpha  occ. eigenvalues --   -0.46837  -0.46554  -0.46523  -0.46503  -0.46195
 Alpha  occ. eigenvalues --   -0.46146  -0.46106  -0.45596  -0.45107  -0.44926
 Alpha  occ. eigenvalues --   -0.44885  -0.44213  -0.44147  -0.44037  -0.43489
 Alpha  occ. eigenvalues --   -0.43296  -0.43246  -0.43126  -0.43113  -0.43080
 Alpha  occ. eigenvalues --   -0.42721  -0.42700  -0.42670  -0.42599  -0.42590
 Alpha  occ. eigenvalues --   -0.42509  -0.42478  -0.42458  -0.42299  -0.42283
 Alpha  occ. eigenvalues --   -0.42265  -0.42034  -0.41919  -0.41868  -0.41851
 Alpha  occ. eigenvalues --   -0.41188  -0.41175  -0.41128  -0.41039  -0.40558
 Alpha  occ. eigenvalues --   -0.40537  -0.40524  -0.40372  -0.39445  -0.39443
 Alpha  occ. eigenvalues --   -0.36985  -0.32544  -0.29194  -0.25165  -0.25136
 Alpha  occ. eigenvalues --   -0.23514
 Alpha virt. eigenvalues --   -0.09415  -0.09205  -0.08490  -0.08433  -0.07013
 Alpha virt. eigenvalues --   -0.06993  -0.06916  -0.04424  -0.04131  -0.04083
 Alpha virt. eigenvalues --   -0.03721  -0.03490  -0.03440  -0.03234  -0.03130

 Mulliken charges:
               1
     1  Cl  -0.891803
     2  C   -0.081198
     3  C    0.049458
     4  C   -0.080258
     5  C   -0.033751
     6  C   -0.033782
     7  C   -0.049465
     8  H    0.029824
     9  H    0.028962
    10  H    0.040855
    11  H    0.036714
    12  H    0.039612
    13  C   -0.125785
    14  C    0.027319
    15  H    0.020373
    16  H    0.035479
    17  H    0.024992
    18  O   -0.663589
    19  O   -0.662719
    20  O   -0.655249
    21  O   -0.664051
    22  W    1.733739
    23  W    1.676248
    24  W    1.686500
    25  W    1.696778
    26  W    1.677181
    27  W    1.728278
    28  W    1.619102
    29  W    1.687613
    30  O   -0.320212
    31  O   -0.365816
    32  O   -0.367745
    33  O   -0.359550
    34  O   -0.663924
    35  O   -0.670932
    36  O   -0.661377
    37  O   -0.664001
    38  O   -0.367798
    39  O   -0.364844
    40  O   -0.297711
    41  O   -0.364944
    42  O   -0.670364
    43  O   -0.664057
    44  O   -0.660226
    45  O   -0.665935
    46  O   -0.367823
    47  O   -0.320394
    48  O   -0.361210
    49  O   -0.362260
    50  W    1.673804
    51  W    1.680349
    52  W    1.684411
    53  W    1.686287
    54  O   -0.726160
    55  O   -0.708244
    56  O   -0.726062
    57  O   -0.723962
    58  O   -0.705925
    59  O   -0.726972
    60  O   -0.726018
    61  O   -0.721126
    62  O   -0.725396
    63  O   -0.707543
    64  O   -0.725999
    65  O   -0.726527
    66  O   -0.802045
    67  O   -0.801238
    68  O   -0.798575
    69  O   -0.809971
    70  K    0.863741
    71  K    0.862358
    72  K    0.860852
    73  V    1.193705
 Sum of Mulliken charges =  -1.00000

 Dipole moment (field-independent basis, Debye):
    X=             50.1310    Y=            -51.0951    Z=            -38.8295  Tot=             81.4344
 Quadrupole moment (field-independent basis, Debye-Ang):
   XX=          -1039.8508   YY=           -887.9362   ZZ=           -917.3632
   XY=            445.4748   XZ=            448.6235   YZ=           -476.2527

 Normal termination of Gaussian 16 at Sun Jun  2 23:35:09 2024.
