 Gaussian 16, Revision C.01,
 Gaussian 16:  ES64L-G16RevC.01  3-Jul-2019

 ----------------------------------------------------------------------
 # def2svp wb97xd scrf=(smd,solvent=acetonitrile) g09default scf=(xqc,m
 axcycle=64) force guess=read nosymm
 ----------------------------------------------------------------------

 ----------
 Title Card
 ----------
 Symbolic Z-matrix:
 Charge = -1 Multiplicity = 1

                          Input orientation:
 ---------------------------------------------------------------------
 Center     Atomic      Atomic             Coordinates (Angstroms)
 Number     Number       Type             X           Y           Z
 ---------------------------------------------------------------------
      1         17           0       -9.642673    8.267845   10.537241
      2          6           0       -8.356538    4.262423   12.208807
      3          6           0       -9.151834    3.937741   11.093588
      4          6           0      -10.065814    2.875105   11.217086
      5          6           0      -10.207441    2.185689   12.416771
      6          6           0       -9.424939    2.532491   13.519235
      7          6           0       -8.493096    3.566886   13.406187
      8          1           0       -7.622774    5.068878   12.142069
      9          1           0      -10.681757    2.603877   10.355069
     10          1           0      -10.933143    1.372488   12.493129
     11          1           0       -9.530623    1.989580   14.460854
     12          1           0       -7.871048    3.837501   14.263152
     13          6           0       -9.097824    4.681544    9.834343
     14          6           0       -8.428654    5.834075    9.623604
     15          1           0       -9.690685    4.258660    9.015367
     16          1           0       -8.457556    6.325203    8.650360
     17          1           0       -7.789298    6.288416   10.379821
     18          8           0       -0.975401   -1.808511    7.461849
     19          8           0       -8.382604   -1.329834    7.462221
     20          8           0       -7.014310    1.342869   10.477762
     21          8           0       -2.334058   -4.398244   10.555119
     22         74           0       -3.392443    0.698629    6.486978
     23         74           0       -5.989641   -3.828413    6.561136
     24         74           0       -3.601094    0.872158   11.409241
     25         74           0       -5.764063   -3.874113   11.480138
     26         74           0       -2.434163   -2.589788    6.394831
     27         74           0       -6.925626   -0.538510    6.362601
     28         74           0       -6.804876   -0.255827   11.569839
     29         74           0       -2.547372   -2.742450   11.609173
     30          8           0       -3.156174    1.885410    5.310374
     31          8           0       -6.125147   -5.078136    5.418467
     32          8           0       -2.673058    1.710897   12.559944
     33          8           0       -6.681306   -4.678139   12.661519
     34          8           0       -2.661072   -0.915074    5.588542
     35          8           0       -6.697146   -2.272729    5.620410
     36          8           0       -5.294699    0.546664   12.358524
     37          8           0       -4.051403   -3.538659   12.408815
     38          8           0        0.324350   -0.034670    9.274836
     39          8           0       -9.690556   -3.035290    9.321129
     40          8           0       -6.352110    3.424440    8.666955
     41          8           0       -3.004787   -6.495652    8.744663
     42          8           0       -1.770846    0.739330    7.474465
     43          8           0       -7.596734   -3.882997    7.542816
     44          8           0       -4.484757    2.194323   10.424330
     45          8           0       -4.871259   -5.236962   10.528445
     46          8           0       -1.604838   -3.526639    5.243768
     47          8           0       -7.801722    0.269652    5.167106
     48          8           0       -8.022499   -0.161662   12.749912
     49          8           0       -1.316508   -2.864657   12.773800
     50         74           0       -1.236292   -0.549412    8.839456
     51         74           0       -8.129746   -2.533777    8.873440
     52         74           0       -5.874931    1.852765    9.044574
     53         74           0       -3.489713   -4.921185    9.162234
     54          8           0       -4.213867   -3.118243    6.071383
     55          8           0       -5.142247   -0.060562    6.018596
     56          8           0       -6.166126   -2.005878   11.915429
     57          8           0       -3.167377   -0.993040   11.914943
     58          8           0       -4.345765    1.579510    7.838926
     59          8           0       -5.008864   -4.690881    7.924026
     60          8           0       -2.308582    0.560839   10.074974
     61          8           0       -7.045297   -3.617831   10.131500
     62          8           0       -2.572306   -3.912129    7.864809
     63          8           0       -6.802579    0.791171    7.801839
     64          8           0       -7.817347   -1.179538   10.146178
     65          8           0       -1.547057   -1.879469   10.142962
     66          8           0       -3.350309   -1.162738    8.013944
     67          8           0       -6.009980   -1.965027    8.033913
     68          8           0       -5.107466   -0.213117    9.942166
     69          8           0       -4.237169   -2.852105    9.976229
     70         19           0       -3.216471   -6.136058    5.648359
     71         19           0       -0.123230    0.027374   12.320883
     72         19           0       -9.284157   -2.820013   12.418717
     73         23           0       -4.678280   -1.544880    8.990008
 ---------------------------------------------------------------------

 SCF Done:  E(UwB97XD) =  -7327.70195023     A.U. after   33 cycles

 Alpha  occ. eigenvalues --  -19.24661 -18.94093 -18.93012 -18.92961 -13.36481
 Alpha  occ. eigenvalues --  -13.36465 -13.36461 -10.69408 -10.69404 -10.69403
 Alpha  occ. eigenvalues --  -10.69393 -10.69389 -10.69389 -10.69387 -10.69385
 Alpha  occ. eigenvalues --  -10.69379 -10.33041 -10.32228 -10.31997 -10.31042
 Alpha  occ. eigenvalues --  -10.31016 -10.30992 -10.30593 -10.30528  -9.52480
 Alpha  occ. eigenvalues --   -7.27363  -7.27023  -7.27019  -3.21121  -3.21103
 Alpha  occ. eigenvalues --   -3.21070  -3.21051  -3.21033  -3.21024  -3.21012
 Alpha  occ. eigenvalues --   -3.21010  -3.21002  -3.20868  -3.20865  -3.20837
 Alpha  occ. eigenvalues --   -2.78808  -1.85357  -1.85295  -1.85285  -1.85257
 Alpha  occ. eigenvalues --   -1.85152  -1.85082  -1.85064  -1.85046  -1.85032
 Alpha  occ. eigenvalues --   -1.85023  -1.85005  -1.84953  -1.84398  -1.84285
 Alpha  occ. eigenvalues --   -1.84274  -1.84255  -1.84223  -1.84211  -1.84155
 Alpha  occ. eigenvalues --   -1.84139  -1.84112  -1.84104  -1.84073  -1.84063
 Alpha  occ. eigenvalues --   -1.83965  -1.83923  -1.83886  -1.83881  -1.83866
 Alpha  occ. eigenvalues --   -1.83834  -1.83810  -1.83798  -1.83791  -1.83696
 Alpha  occ. eigenvalues --   -1.83685  -1.83677  -1.81970  -1.81635  -1.81606
 Alpha  occ. eigenvalues --   -1.50186  -1.50173  -1.50171  -1.08629  -1.07007
 Alpha  occ. eigenvalues --   -1.06964  -1.06924  -1.06023  -1.06008  -1.05985
 Alpha  occ. eigenvalues --   -1.04588  -1.04578  -1.04570  -1.03988  -1.03982
 Alpha  occ. eigenvalues --   -1.03714  -1.03376  -1.03341  -1.03321  -1.03039
 Alpha  occ. eigenvalues --   -1.03015  -1.02273  -1.02239  -1.02232  -1.02107
 Alpha  occ. eigenvalues --   -1.02019  -1.01992  -1.01916  -1.01903  -1.01784
 Alpha  occ. eigenvalues --   -1.01771  -1.01754  -1.01625  -1.01584  -1.01576
 Alpha  occ. eigenvalues --   -1.01313  -1.00822  -1.00768  -1.00710  -1.00703
 Alpha  occ. eigenvalues --   -1.00005  -0.99953  -0.99888  -0.96220  -0.89324
 Alpha  occ. eigenvalues --   -0.85630  -0.85624  -0.85623  -0.85477  -0.85474
 Alpha  occ. eigenvalues --   -0.85473  -0.85468  -0.85451  -0.85434  -0.84300
 Alpha  occ. eigenvalues --   -0.82512  -0.80993  -0.71949  -0.69639  -0.65093
 Alpha  occ. eigenvalues --   -0.62340  -0.61731  -0.61663  -0.61638  -0.60627
 Alpha  occ. eigenvalues --   -0.58985  -0.58965  -0.58948  -0.58893  -0.58821
 Alpha  occ. eigenvalues --   -0.58799  -0.58773  -0.58733  -0.58561  -0.57388
 Alpha  occ. eigenvalues --   -0.57345  -0.57321  -0.57033  -0.56799  -0.56507
 Alpha  occ. eigenvalues --   -0.56459  -0.56422  -0.56030  -0.55880  -0.55368
 Alpha  occ. eigenvalues --   -0.55358  -0.55319  -0.54444  -0.54170  -0.54144
 Alpha  occ. eigenvalues --   -0.53974  -0.53712  -0.53659  -0.53650  -0.52764
 Alpha  occ. eigenvalues --   -0.52660  -0.52613  -0.52505  -0.52466  -0.51488
 Alpha  occ. eigenvalues --   -0.51485  -0.51464  -0.51381  -0.51325  -0.50809
 Alpha  occ. eigenvalues --   -0.50576  -0.50537  -0.50491  -0.50413  -0.50344
 Alpha  occ. eigenvalues --   -0.50285  -0.50074  -0.50035  -0.50007  -0.49755
 Alpha  occ. eigenvalues --   -0.49664  -0.49626  -0.49513  -0.49495  -0.49285
 Alpha  occ. eigenvalues --   -0.49241  -0.49203  -0.49138  -0.49091  -0.49016
 Alpha  occ. eigenvalues --   -0.48720  -0.48559  -0.48535  -0.48473  -0.47674
 Alpha  occ. eigenvalues --   -0.47655  -0.47182  -0.46483  -0.46049  -0.46030
 Alpha  occ. eigenvalues --   -0.45883  -0.45866  -0.45759  -0.45633  -0.45227
 Alpha  occ. eigenvalues --   -0.45153  -0.45147  -0.44802  -0.44601  -0.44491
 Alpha  occ. eigenvalues --   -0.44481  -0.44446  -0.44298  -0.44232  -0.44207
 Alpha  occ. eigenvalues --   -0.43456  -0.43137  -0.42550  -0.42520  -0.42446
 Alpha  occ. eigenvalues --   -0.42330  -0.42216  -0.42178  -0.42168  -0.41641
 Alpha  occ. eigenvalues --   -0.41626  -0.41591  -0.41041  -0.40993  -0.40782
 Alpha  occ. eigenvalues --   -0.40770  -0.40747  -0.40388  -0.40369  -0.40337
 Alpha  occ. eigenvalues --   -0.40213  -0.40182  -0.40170  -0.40130  -0.39869
 Alpha  occ. eigenvalues --   -0.39365  -0.39267  -0.39234  -0.39139  -0.39055
 Alpha  occ. eigenvalues --   -0.38918  -0.38890  -0.38810  -0.38759  -0.38703
 Alpha  occ. eigenvalues --   -0.38314  -0.38286  -0.38243  -0.38066  -0.37217
 Alpha  occ. eigenvalues --   -0.37189  -0.34704  -0.34665  -0.33679  -0.30446
 Alpha  occ. eigenvalues --   -0.25777
 Alpha virt. eigenvalues --   -0.12008  -0.06365  -0.06307  -0.04861  -0.04826
 Alpha virt. eigenvalues --   -0.04737  -0.01520  -0.01414  -0.01374  -0.01146
 Alpha virt. eigenvalues --   -0.00925  -0.00917  -0.00879  -0.00162  -0.00093

  Beta  occ. eigenvalues -- -197.10831-129.99072-129.99059-129.99058-101.62469
  Beta  occ. eigenvalues --  -22.43255 -19.28538 -19.28512 -19.28454 -19.28436
  Beta  occ. eigenvalues --  -19.28399 -19.28381 -19.28366 -19.28358 -19.28349
  Beta  occ. eigenvalues --  -19.28276 -19.28252 -19.28168 -19.26950 -19.26930
  Beta  occ. eigenvalues --  -19.26924 -19.26868 -19.26862 -19.26850 -19.26847
  Beta  occ. eigenvalues --  -19.26845 -19.26824 -19.26824 -19.26815 -19.26800
  Beta  occ. eigenvalues --  -19.26796 -19.26792 -19.26790 -19.26783 -19.26775
  Beta  occ. eigenvalues --  -19.26764 -19.26762 -19.26750 -19.26740 -19.26719
  Beta  occ. eigenvalues --  -19.26662 -19.26633 -19.24723 -19.24692 -19.24663
  Beta  occ. eigenvalues --  -19.24635 -18.93747 -18.91575 -18.91474 -13.36481
  Beta  occ. eigenvalues --  -13.36465 -13.36461 -10.69408 -10.69404 -10.69403
  Beta  occ. eigenvalues --  -10.69393 -10.69389 -10.69389 -10.69387 -10.69385
  Beta  occ. eigenvalues --  -10.69379 -10.33327 -10.32344 -10.31945 -10.31148
  Beta  occ. eigenvalues --  -10.31141 -10.31094 -10.30534 -10.30468  -9.52927
  Beta  occ. eigenvalues --   -7.28766  -7.27329  -7.27325  -3.21120  -3.21097
  Beta  occ. eigenvalues --   -3.21069  -3.21045  -3.21033  -3.21018  -3.21006
  Beta  occ. eigenvalues --   -3.21004  -3.20997  -3.20867  -3.20861  -3.20832
  Beta  occ. eigenvalues --   -2.74746  -1.85352  -1.85290  -1.85280  -1.85249
  Beta  occ. eigenvalues --   -1.85147  -1.85075  -1.85060  -1.85039  -1.85024
  Beta  occ. eigenvalues --   -1.85014  -1.85000  -1.84944  -1.84395  -1.84283
  Beta  occ. eigenvalues --   -1.84271  -1.84253  -1.84220  -1.84208  -1.84152
  Beta  occ. eigenvalues --   -1.84137  -1.84108  -1.84101  -1.84070  -1.84060
  Beta  occ. eigenvalues --   -1.83962  -1.83920  -1.83884  -1.83878  -1.83863
  Beta  occ. eigenvalues --   -1.83831  -1.83807  -1.83796  -1.83788  -1.83694
  Beta  occ. eigenvalues --   -1.83682  -1.83674  -1.80631  -1.75982  -1.75760
  Beta  occ. eigenvalues --   -1.50186  -1.50173  -1.50171  -1.08612  -1.06986
  Beta  occ. eigenvalues --   -1.06943  -1.06898  -1.06021  -1.06006  -1.05984
  Beta  occ. eigenvalues --   -1.04589  -1.04579  -1.04569  -1.03990  -1.03982
  Beta  occ. eigenvalues --   -1.03648  -1.03344  -1.03303  -1.03289  -1.03038
  Beta  occ. eigenvalues --   -1.03007  -1.02255  -1.02217  -1.02212  -1.02099
  Beta  occ. eigenvalues --   -1.02015  -1.01979  -1.01910  -1.01889  -1.01779
  Beta  occ. eigenvalues --   -1.01769  -1.01751  -1.01621  -1.01581  -1.01560
  Beta  occ. eigenvalues --   -1.01313  -1.00786  -1.00763  -1.00709  -1.00703
  Beta  occ. eigenvalues --   -0.99870  -0.99814  -0.99767  -0.96453  -0.90004
  Beta  occ. eigenvalues --   -0.85629  -0.85624  -0.85623  -0.85477  -0.85474
  Beta  occ. eigenvalues --   -0.85473  -0.85468  -0.85451  -0.85434  -0.84619
  Beta  occ. eigenvalues --   -0.84372  -0.82709  -0.72211  -0.69763  -0.65348
  Beta  occ. eigenvalues --   -0.62340  -0.61730  -0.61663  -0.61637  -0.60844
  Beta  occ. eigenvalues --   -0.58982  -0.58964  -0.58947  -0.58807  -0.58794
  Beta  occ. eigenvalues --   -0.58762  -0.58749  -0.58693  -0.58561  -0.57351
  Beta  occ. eigenvalues --   -0.57203  -0.57153  -0.57031  -0.56937  -0.56509
  Beta  occ. eigenvalues --   -0.56428  -0.56385  -0.55836  -0.55626  -0.55347
  Beta  occ. eigenvalues --   -0.55338  -0.55322  -0.54654  -0.54163  -0.54134
  Beta  occ. eigenvalues --   -0.53963  -0.53679  -0.53635  -0.53603  -0.52832
  Beta  occ. eigenvalues --   -0.52664  -0.52599  -0.52487  -0.52462  -0.51473
  Beta  occ. eigenvalues --   -0.51456  -0.51448  -0.51324  -0.51258  -0.51011
  Beta  occ. eigenvalues --   -0.50573  -0.50478  -0.50471  -0.50343  -0.50248
  Beta  occ. eigenvalues --   -0.50176  -0.50044  -0.50032  -0.49972  -0.49704
  Beta  occ. eigenvalues --   -0.49640  -0.49591  -0.49502  -0.49484  -0.49285
  Beta  occ. eigenvalues --   -0.49219  -0.49202  -0.49109  -0.49076  -0.48995
  Beta  occ. eigenvalues --   -0.48713  -0.48555  -0.48535  -0.48466  -0.47860
  Beta  occ. eigenvalues --   -0.47630  -0.47589  -0.46060  -0.45909  -0.45876
  Beta  occ. eigenvalues --   -0.45816  -0.45677  -0.45575  -0.45227  -0.45169
  Beta  occ. eigenvalues --   -0.45153  -0.45056  -0.44801  -0.44600  -0.44474
  Beta  occ. eigenvalues --   -0.44429  -0.44425  -0.44279  -0.44209  -0.44183
  Beta  occ. eigenvalues --   -0.43449  -0.43242  -0.42500  -0.42461  -0.42415
  Beta  occ. eigenvalues --   -0.42305  -0.42254  -0.42142  -0.42131  -0.41632
  Beta  occ. eigenvalues --   -0.41609  -0.41571  -0.41412  -0.41046  -0.40952
  Beta  occ. eigenvalues --   -0.40760  -0.40714  -0.40686  -0.40374  -0.40359
  Beta  occ. eigenvalues --   -0.40322  -0.40168  -0.40157  -0.40144  -0.39811
  Beta  occ. eigenvalues --   -0.39629  -0.39365  -0.39172  -0.39094  -0.39090
  Beta  occ. eigenvalues --   -0.38904  -0.38858  -0.38815  -0.38745  -0.38702
  Beta  occ. eigenvalues --   -0.38653  -0.38308  -0.38281  -0.38239  -0.37632
  Beta  occ. eigenvalues --   -0.37218  -0.37183  -0.35634  -0.35589  -0.33967
  Beta  occ. eigenvalues --   -0.30875
  Beta virt. eigenvalues --   -0.06363  -0.06307  -0.04860  -0.04825  -0.04736
  Beta virt. eigenvalues --   -0.01515  -0.01410  -0.01369  -0.01140  -0.00920
  Beta virt. eigenvalues --   -0.00912  -0.00874  -0.00152  -0.00081  -0.00044

 Mulliken charges and spin densities:
               1          2
     1  Cl  -0.352618  -0.602251
     2  C   -0.035387  -0.097985
     3  C    0.012203   0.059002
     4  C   -0.034950  -0.093780
     5  C   -0.031548   0.059756
     6  C    0.008402  -0.117912
     7  C   -0.047610   0.059886
     8  H    0.050829   0.004263
     9  H    0.050931   0.004021
    10  H    0.056109  -0.002135
    11  H    0.057247   0.005175
    12  H    0.054585  -0.002103
    13  C    0.006825  -0.267179
    14  C   -0.042421  -0.017203
    15  H    0.077038   0.010945
    16  H    0.094834   0.001098
    17  H    0.088601  -0.001979
    18  O   -0.672529  -0.000567
    19  O   -0.671533  -0.000529
    20  O   -0.666445  -0.001593
    21  O   -0.673068  -0.000543
    22  W    1.716969   0.000357
    23  W    1.661923   0.000483
    24  W    1.673846   0.000166
    25  W    1.682607   0.000218
    26  W    1.663515   0.002704
    27  W    1.710439   0.002436
    28  W    1.611173   0.003335
    29  W    1.673168   0.002781
    30  O   -0.350092  -0.000526
    31  O   -0.394189  -0.000572
    32  O   -0.396204  -0.000614
    33  O   -0.388305  -0.000571
    34  O   -0.672256  -0.000278
    35  O   -0.678368  -0.000014
    36  O   -0.670449  -0.000120
    37  O   -0.672959  -0.000183
    38  O   -0.397664   0.002127
    39  O   -0.395003   0.002166
    40  O   -0.340720   0.000274
    41  O   -0.395035   0.002138
    42  O   -0.677998   0.000033
    43  O   -0.672716   0.000136
    44  O   -0.668804   0.000255
    45  O   -0.674368   0.000082
    46  O   -0.397746   0.002265
    47  O   -0.352068   0.002136
    48  O   -0.394499   0.001792
    49  O   -0.392405   0.002288
    50  W    1.659801   0.002817
    51  W    1.665871   0.002714
    52  W    1.677531   0.003959
    53  W    1.671545   0.002665
    54  O   -0.724040   0.000107
    55  O   -0.706364   0.000015
    56  O   -0.722760   0.000153
    57  O   -0.721783   0.000073
    58  O   -0.703748   0.000073
    59  O   -0.724214   0.000156
    60  O   -0.723531   0.000211
    61  O   -0.718712   0.000199
    62  O   -0.723789  -0.000184
    63  O   -0.706275  -0.000058
    64  O   -0.725047  -0.000202
    65  O   -0.724639  -0.000204
    66  O   -0.884322   0.005311
    67  O   -0.884396   0.007310
    68  O   -0.881627   0.007164
    69  O   -0.889767   0.006476
    70  K    0.850075   0.000192
    71  K    0.848735   0.000217
    72  K    0.847024   0.000214
    73  V    1.203143   0.936939
 Sum of Mulliken charges =  -1.00000  -0.00000

 Dipole moment (field-independent basis, Debye):
    X=             28.0112    Y=            -13.6865    Z=            -30.7080  Tot=             43.7599
 Quadrupole moment (field-independent basis, Debye-Ang):
   XX=           -758.2524   YY=           -711.6611   ZZ=           -781.8849
   XY=            126.6545   XZ=            173.3842   YZ=            -92.8322

 Normal termination of Gaussian 16 at Sun Jun  2 23:24:20 2024.
