 Gaussian 16, Revision C.01,
 Gaussian 16:  ES64L-G16RevC.01  3-Jul-2019

 ----------------------------------------------------------------------
 # def2svp wb97xd scrf=(smd,solvent=acetonitrile) g09default scf=(xqc,m
 axcycle=64) force guess=read nosymm
 ----------------------------------------------------------------------

 ----------
 Title Card
 ----------
 Symbolic Z-matrix:
 Charge = -1 Multiplicity = 1

                          Input orientation:
 ---------------------------------------------------------------------
 Center     Atomic      Atomic             Coordinates (Angstroms)
 Number     Number       Type             X           Y           Z
 ---------------------------------------------------------------------
      1         17           0       -9.644674    8.267870   10.536590
      2          6           0       -8.359025    4.264759   12.207803
      3          6           0       -9.154804    3.939441   11.093102
      4          6           0      -10.068609    2.876784   11.217541
      5          6           0      -10.207627    2.186282   12.416964
      6          6           0       -9.422685    2.531843   13.517999
      7          6           0       -8.492833    3.568002   13.404798
      8          1           0       -7.627408    5.073081   12.141561
      9          1           0      -10.686727    2.606548   10.356738
     10          1           0      -10.933910    1.373654   12.494444
     11          1           0       -9.525168    1.987109   14.458925
     12          1           0       -7.870752    3.839844   14.261264
     13          6           0       -9.101797    4.683899    9.834227
     14          6           0       -8.430288    5.835219    9.624184
     15          1           0       -9.697172    4.263183    9.015928
     16          1           0       -8.460427    6.329566    8.652743
     17          1           0       -7.787069    6.285034   10.379878
     18          8           0       -0.975438   -1.809790    7.461139
     19          8           0       -8.381634   -1.329176    7.462221
     20          8           0       -7.013518    1.341971   10.478700
     21          8           0       -2.333713   -4.398150   10.555093
     22         74           0       -3.390933    0.700196    6.488759
     23         74           0       -5.990019   -3.830049    6.562052
     24         74           0       -3.599318    0.872982   11.407946
     25         74           0       -5.764690   -3.875793   11.479305
     26         74           0       -2.435291   -2.589368    6.393134
     27         74           0       -6.923499   -0.539287    6.361163
     28         74           0       -6.802881   -0.256885   11.571696
     29         74           0       -2.548247   -2.742683   11.610418
     30          8           0       -3.154170    1.887939    5.313314
     31          8           0       -6.126014   -5.079699    5.419242
     32          8           0       -2.671576    1.711708   12.558794
     33          8           0       -6.681405   -4.680628   12.660593
     34          8           0       -2.661321   -0.914537    5.588379
     35          8           0       -6.696555   -2.273469    5.620466
     36          8           0       -5.292720    0.545956   12.358602
     37          8           0       -4.051785   -3.539293   12.408871
     38          8           0        0.326142   -0.037872    9.274300
     39          8           0       -9.690839   -3.033412    9.320533
     40          8           0       -6.353848    3.423299    8.667638
     41          8           0       -3.003015   -6.495704    8.744840
     42          8           0       -1.769556    0.738520    7.475022
     43          8           0       -7.596796   -3.882933    7.543350
     44          8           0       -4.484065    2.194240   10.424116
     45          8           0       -4.870848   -5.237399   10.527772
     46          8           0       -1.606034   -3.525729    5.241600
     47          8           0       -7.799619    0.268374    5.165324
     48          8           0       -8.019946   -0.161395   12.752094
     49          8           0       -1.317822   -2.865235   12.775576
     50         74           0       -1.234766   -0.552032    8.839569
     51         74           0       -8.129757   -2.532224    8.873442
     52         74           0       -5.876186    1.851922    9.044903
     53         74           0       -3.488223   -4.921092    9.161924
     54          8           0       -4.214373   -3.118946    6.070787
     55          8           0       -5.141078   -0.059855    6.018484
     56          8           0       -6.166105   -2.007188   11.916615
     57          8           0       -3.166278   -0.993048   11.914804
     58          8           0       -4.345192    1.579732    7.839853
     59          8           0       -5.008650   -4.692293    7.923674
     60          8           0       -2.306601    0.560453   10.074872
     61          8           0       -7.045897   -3.618286   10.131829
     62          8           0       -2.572483   -3.912557    7.863812
     63          8           0       -6.801982    0.790735    7.801615
     64          8           0       -7.816692   -1.179740   10.147352
     65          8           0       -1.545878   -1.880322   10.143644
     66          8           0       -3.349754   -1.163053    8.014141
     67          8           0       -6.009325   -1.965503    8.033974
     68          8           0       -5.106612   -0.213504    9.942248
     69          8           0       -4.237102   -2.852406    9.976184
     70         19           0       -3.217094   -6.136893    5.648445
     71         19           0       -0.124374    0.023777   12.319797
     72         19           0       -9.284680   -2.819667   12.417177
     73         23           0       -4.677747   -1.545238    8.989990
 ---------------------------------------------------------------------

 SCF Done:  E(RwB97XD) =  -7327.70199201     A.U. after   12 cycles

 Alpha  occ. eigenvalues -- -197.29378-130.00099-130.00044-130.00000-101.48391
 Alpha  occ. eigenvalues --  -22.62509 -19.33612 -19.33605 -19.33604 -19.33577
 Alpha  occ. eigenvalues --  -19.30730 -19.30696 -19.30694 -19.30685 -19.30679
 Alpha  occ. eigenvalues --  -19.30672 -19.30665 -19.30643 -19.30576 -19.30369
 Alpha  occ. eigenvalues --  -19.30348 -19.30174 -19.29330 -19.29328 -19.29302
 Alpha  occ. eigenvalues --  -19.29297 -19.29282 -19.29277 -19.29256 -19.29233
 Alpha  occ. eigenvalues --  -19.29215 -19.29183 -19.29182 -19.29159 -19.29151
 Alpha  occ. eigenvalues --  -19.29117 -19.29105 -19.29101 -19.29098 -19.29076
 Alpha  occ. eigenvalues --  -19.29075 -19.29041 -19.29005 -19.28977 -19.28961
 Alpha  occ. eigenvalues --  -19.28872 -19.11465 -19.11457 -19.11448 -13.37502
 Alpha  occ. eigenvalues --  -13.37444 -13.37395 -10.70431 -10.70424 -10.70424
 Alpha  occ. eigenvalues --  -10.70374 -10.70367 -10.70365 -10.70326 -10.70319
 Alpha  occ. eigenvalues --  -10.70314 -10.29824 -10.29323 -10.29276 -10.29031
 Alpha  occ. eigenvalues --  -10.28932 -10.28929 -10.28070 -10.27426  -9.38868
 Alpha  occ. eigenvalues --   -7.13695  -7.13644  -7.13637  -3.23321  -3.23320
 Alpha  occ. eigenvalues --   -3.23300  -3.23298  -3.23293  -3.23266  -3.23257
 Alpha  occ. eigenvalues --   -3.23254  -3.23227  -3.22973  -3.22955  -3.22775
 Alpha  occ. eigenvalues --   -2.91771  -1.94157  -1.94125  -1.94113  -1.87721
 Alpha  occ. eigenvalues --   -1.87677  -1.87661  -1.87629  -1.87493  -1.87474
 Alpha  occ. eigenvalues --   -1.87470  -1.87453  -1.87431  -1.87276  -1.87247
 Alpha  occ. eigenvalues --   -1.87095  -1.86631  -1.86513  -1.86503  -1.86486
 Alpha  occ. eigenvalues --   -1.86459  -1.86437  -1.86348  -1.86333  -1.86318
 Alpha  occ. eigenvalues --   -1.86300  -1.86290  -1.86264  -1.86149  -1.86139
 Alpha  occ. eigenvalues --   -1.86125  -1.86115  -1.86044  -1.86028  -1.85992
 Alpha  occ. eigenvalues --   -1.85922  -1.85904  -1.85805  -1.85715  -1.85665
 Alpha  occ. eigenvalues --   -1.51192  -1.51138  -1.51092  -1.13042  -1.11270
 Alpha  occ. eigenvalues --   -1.11184  -1.11183  -1.08967  -1.08534  -1.08496
 Alpha  occ. eigenvalues --   -1.08325  -1.07565  -1.07501  -1.07493  -1.06906
 Alpha  occ. eigenvalues --   -1.06896  -1.06877  -1.06325  -1.06302  -1.05331
 Alpha  occ. eigenvalues --   -1.05324  -1.04986  -1.04981  -1.04967  -1.04207
 Alpha  occ. eigenvalues --   -1.04199  -1.04181  -1.04038  -1.04013  -1.04004
 Alpha  occ. eigenvalues --   -1.03947  -1.03926  -1.03901  -1.03768  -1.03751
 Alpha  occ. eigenvalues --   -1.03623  -1.03564  -1.03307  -1.03270  -1.03129
 Alpha  occ. eigenvalues --   -1.03120  -1.03045  -1.02974  -0.94354  -0.86661
 Alpha  occ. eigenvalues --   -0.86615  -0.86568  -0.86484  -0.86468  -0.86467
 Alpha  occ. eigenvalues --   -0.86420  -0.86406  -0.86381  -0.86345  -0.82797
 Alpha  occ. eigenvalues --   -0.79709  -0.71654  -0.69639  -0.67978  -0.64616
 Alpha  occ. eigenvalues --   -0.63990  -0.63914  -0.63897  -0.63303  -0.63282
 Alpha  occ. eigenvalues --   -0.63166  -0.62906  -0.62669  -0.62602  -0.61979
 Alpha  occ. eigenvalues --   -0.61617  -0.61600  -0.61507  -0.61257  -0.61243
 Alpha  occ. eigenvalues --   -0.61185  -0.60419  -0.59481  -0.59456  -0.59448
 Alpha  occ. eigenvalues --   -0.59410  -0.59367  -0.58582  -0.58008  -0.57974
 Alpha  occ. eigenvalues --   -0.57890  -0.57059  -0.57030  -0.57001  -0.56292
 Alpha  occ. eigenvalues --   -0.56273  -0.56118  -0.55708  -0.54869  -0.54814
 Alpha  occ. eigenvalues --   -0.54770  -0.54510  -0.54243  -0.54113  -0.54106
 Alpha  occ. eigenvalues --   -0.54029  -0.53963  -0.53252  -0.53218  -0.53084
 Alpha  occ. eigenvalues --   -0.53048  -0.52909  -0.52725  -0.52691  -0.52649
 Alpha  occ. eigenvalues --   -0.52622  -0.52512  -0.52469  -0.52398  -0.51620
 Alpha  occ. eigenvalues --   -0.51605  -0.51342  -0.51320  -0.51280  -0.51238
 Alpha  occ. eigenvalues --   -0.51181  -0.51166  -0.50935  -0.50782  -0.50610
 Alpha  occ. eigenvalues --   -0.50589  -0.50581  -0.49901  -0.49889  -0.49302
 Alpha  occ. eigenvalues --   -0.49273  -0.49236  -0.49216  -0.49166  -0.49085
 Alpha  occ. eigenvalues --   -0.48900  -0.48080  -0.48032  -0.47922  -0.47636
 Alpha  occ. eigenvalues --   -0.47392  -0.47295  -0.47252  -0.47000  -0.46959
 Alpha  occ. eigenvalues --   -0.46843  -0.46557  -0.46531  -0.46504  -0.46197
 Alpha  occ. eigenvalues --   -0.46148  -0.46108  -0.45600  -0.45108  -0.44927
 Alpha  occ. eigenvalues --   -0.44887  -0.44212  -0.44148  -0.44038  -0.43489
 Alpha  occ. eigenvalues --   -0.43299  -0.43249  -0.43128  -0.43115  -0.43082
 Alpha  occ. eigenvalues --   -0.42725  -0.42704  -0.42673  -0.42602  -0.42592
 Alpha  occ. eigenvalues --   -0.42511  -0.42480  -0.42461  -0.42300  -0.42285
 Alpha  occ. eigenvalues --   -0.42267  -0.42036  -0.41920  -0.41870  -0.41854
 Alpha  occ. eigenvalues --   -0.41194  -0.41180  -0.41129  -0.41044  -0.40561
 Alpha  occ. eigenvalues --   -0.40541  -0.40529  -0.40372  -0.39447  -0.39444
 Alpha  occ. eigenvalues --   -0.36989  -0.32545  -0.29196  -0.25166  -0.25137
 Alpha  occ. eigenvalues --   -0.23509
 Alpha virt. eigenvalues --   -0.09408  -0.09198  -0.08479  -0.08423  -0.07003
 Alpha virt. eigenvalues --   -0.06984  -0.06908  -0.04416  -0.04127  -0.04079
 Alpha virt. eigenvalues --   -0.03722  -0.03491  -0.03441  -0.03233  -0.03127

 Mulliken charges:
               1
     1  Cl  -0.891784
     2  C   -0.081433
     3  C    0.049586
     4  C   -0.080433
     5  C   -0.033785
     6  C   -0.033706
     7  C   -0.049425
     8  H    0.029736
     9  H    0.028957
    10  H    0.040856
    11  H    0.036718
    12  H    0.039543
    13  C   -0.126180
    14  C    0.028168
    15  H    0.020274
    16  H    0.035335
    17  H    0.025156
    18  O   -0.663488
    19  O   -0.662488
    20  O   -0.655244
    21  O   -0.663937
    22  W    1.733358
    23  W    1.675802
    24  W    1.686062
    25  W    1.696419
    26  W    1.676933
    27  W    1.727996
    28  W    1.618665
    29  W    1.687247
    30  O   -0.320181
    31  O   -0.365859
    32  O   -0.367636
    33  O   -0.359445
    34  O   -0.663691
    35  O   -0.670819
    36  O   -0.661266
    37  O   -0.663807
    38  O   -0.367659
    39  O   -0.364879
    40  O   -0.297617
    41  O   -0.364985
    42  O   -0.670268
    43  O   -0.663947
    44  O   -0.660004
    45  O   -0.665876
    46  O   -0.367743
    47  O   -0.320407
    48  O   -0.361015
    49  O   -0.362374
    50  W    1.673401
    51  W    1.679980
    52  W    1.684210
    53  W    1.685965
    54  O   -0.726013
    55  O   -0.708011
    56  O   -0.725905
    57  O   -0.723835
    58  O   -0.705689
    59  O   -0.726747
    60  O   -0.725895
    61  O   -0.720902
    62  O   -0.725243
    63  O   -0.707352
    64  O   -0.725973
    65  O   -0.726392
    66  O   -0.801904
    67  O   -0.801133
    68  O   -0.798418
    69  O   -0.809804
    70  K    0.863835
    71  K    0.862266
    72  K    0.860943
    73  V    1.193184
 Sum of Mulliken charges =  -1.00000

 Dipole moment (field-independent basis, Debye):
    X=             50.1180    Y=            -51.0966    Z=            -38.8458  Tot=             81.4351
 Quadrupole moment (field-independent basis, Debye-Ang):
   XX=          -1039.8659   YY=           -887.8291   ZZ=           -917.7458
   XY=            445.4649   XZ=            448.5472   YZ=           -476.2526

 Normal termination of Gaussian 16 at Mon Jun  3 00:11:42 2024.
