 Gaussian 16, Revision C.01,
 Gaussian 16:  ES64L-G16RevC.01  3-Jul-2019

 ----------------------------------------------------------------------
 # def2svp wb97xd scrf=(smd,solvent=acetonitrile) g09default scf=(xqc,m
 axcycle=64) force guess=read nosymm
 ----------------------------------------------------------------------

 ----------
 Title Card
 ----------
 Symbolic Z-matrix:
 Charge = -1 Multiplicity = 1

                          Input orientation:
 ---------------------------------------------------------------------
 Center     Atomic      Atomic             Coordinates (Angstroms)
 Number     Number       Type             X           Y           Z
 ---------------------------------------------------------------------
      1         17           0       -9.644674    8.267870   10.536590
      2          6           0       -8.359025    4.264759   12.207803
      3          6           0       -9.154804    3.939441   11.093102
      4          6           0      -10.068609    2.876784   11.217541
      5          6           0      -10.207627    2.186282   12.416964
      6          6           0       -9.422685    2.531843   13.517999
      7          6           0       -8.492833    3.568002   13.404798
      8          1           0       -7.627408    5.073081   12.141561
      9          1           0      -10.686727    2.606548   10.356738
     10          1           0      -10.933910    1.373654   12.494444
     11          1           0       -9.525168    1.987109   14.458925
     12          1           0       -7.870752    3.839844   14.261264
     13          6           0       -9.101797    4.683899    9.834227
     14          6           0       -8.430288    5.835219    9.624184
     15          1           0       -9.697172    4.263183    9.015928
     16          1           0       -8.460427    6.329566    8.652743
     17          1           0       -7.787069    6.285034   10.379878
     18          8           0       -0.975438   -1.809790    7.461139
     19          8           0       -8.381634   -1.329176    7.462221
     20          8           0       -7.013518    1.341971   10.478700
     21          8           0       -2.333713   -4.398150   10.555093
     22         74           0       -3.390933    0.700196    6.488759
     23         74           0       -5.990019   -3.830049    6.562052
     24         74           0       -3.599318    0.872982   11.407946
     25         74           0       -5.764690   -3.875793   11.479305
     26         74           0       -2.435291   -2.589368    6.393134
     27         74           0       -6.923499   -0.539287    6.361163
     28         74           0       -6.802881   -0.256885   11.571696
     29         74           0       -2.548247   -2.742683   11.610418
     30          8           0       -3.154170    1.887939    5.313314
     31          8           0       -6.126014   -5.079699    5.419242
     32          8           0       -2.671576    1.711708   12.558794
     33          8           0       -6.681405   -4.680628   12.660593
     34          8           0       -2.661321   -0.914537    5.588379
     35          8           0       -6.696555   -2.273469    5.620466
     36          8           0       -5.292720    0.545956   12.358602
     37          8           0       -4.051785   -3.539293   12.408871
     38          8           0        0.326142   -0.037872    9.274300
     39          8           0       -9.690839   -3.033412    9.320533
     40          8           0       -6.353848    3.423299    8.667638
     41          8           0       -3.003015   -6.495704    8.744840
     42          8           0       -1.769556    0.738520    7.475022
     43          8           0       -7.596796   -3.882933    7.543350
     44          8           0       -4.484065    2.194240   10.424116
     45          8           0       -4.870848   -5.237399   10.527772
     46          8           0       -1.606034   -3.525729    5.241600
     47          8           0       -7.799619    0.268374    5.165324
     48          8           0       -8.019946   -0.161395   12.752094
     49          8           0       -1.317822   -2.865235   12.775576
     50         74           0       -1.234766   -0.552032    8.839569
     51         74           0       -8.129757   -2.532224    8.873442
     52         74           0       -5.876186    1.851922    9.044903
     53         74           0       -3.488223   -4.921092    9.161924
     54          8           0       -4.214373   -3.118946    6.070787
     55          8           0       -5.141078   -0.059855    6.018484
     56          8           0       -6.166105   -2.007188   11.916615
     57          8           0       -3.166278   -0.993048   11.914804
     58          8           0       -4.345192    1.579732    7.839853
     59          8           0       -5.008650   -4.692293    7.923674
     60          8           0       -2.306601    0.560453   10.074872
     61          8           0       -7.045897   -3.618286   10.131829
     62          8           0       -2.572483   -3.912557    7.863812
     63          8           0       -6.801982    0.790735    7.801615
     64          8           0       -7.816692   -1.179740   10.147352
     65          8           0       -1.545878   -1.880322   10.143644
     66          8           0       -3.349754   -1.163053    8.014141
     67          8           0       -6.009325   -1.965503    8.033974
     68          8           0       -5.106612   -0.213504    9.942248
     69          8           0       -4.237102   -2.852406    9.976184
     70         19           0       -3.217094   -6.136893    5.648445
     71         19           0       -0.124374    0.023777   12.319797
     72         19           0       -9.284680   -2.819667   12.417177
     73         23           0       -4.677747   -1.545238    8.989990
 ---------------------------------------------------------------------

 SCF Done:  E(UwB97XD) =  -7327.70197511     A.U. after   37 cycles

 Alpha  occ. eigenvalues --  -19.24660 -18.94080 -18.93002 -18.92947 -13.36482
 Alpha  occ. eigenvalues --  -13.36464 -13.36457 -10.69409 -10.69405 -10.69404
 Alpha  occ. eigenvalues --  -10.69392 -10.69388 -10.69385 -10.69382 -10.69380
 Alpha  occ. eigenvalues --  -10.69379 -10.33047 -10.32237 -10.32001 -10.31042
 Alpha  occ. eigenvalues --  -10.31017 -10.30996 -10.30594 -10.30531  -9.52465
 Alpha  occ. eigenvalues --   -7.27348  -7.27009  -7.27005  -3.21117  -3.21102
 Alpha  occ. eigenvalues --   -3.21070  -3.21050  -3.21033  -3.21024  -3.21012
 Alpha  occ. eigenvalues --   -3.21009  -3.21003  -3.20866  -3.20863  -3.20836
 Alpha  occ. eigenvalues --   -2.78799  -1.85356  -1.85294  -1.85284  -1.85257
 Alpha  occ. eigenvalues --   -1.85151  -1.85081  -1.85064  -1.85046  -1.85032
 Alpha  occ. eigenvalues --   -1.85023  -1.85004  -1.84952  -1.84397  -1.84285
 Alpha  occ. eigenvalues --   -1.84274  -1.84255  -1.84223  -1.84211  -1.84154
 Alpha  occ. eigenvalues --   -1.84138  -1.84111  -1.84104  -1.84073  -1.84063
 Alpha  occ. eigenvalues --   -1.83963  -1.83923  -1.83887  -1.83882  -1.83866
 Alpha  occ. eigenvalues --   -1.83833  -1.83808  -1.83798  -1.83791  -1.83695
 Alpha  occ. eigenvalues --   -1.83685  -1.83676  -1.81962  -1.81628  -1.81598
 Alpha  occ. eigenvalues --   -1.50187  -1.50174  -1.50166  -1.08628  -1.07006
 Alpha  occ. eigenvalues --   -1.06963  -1.06923  -1.06021  -1.06008  -1.05986
 Alpha  occ. eigenvalues --   -1.04588  -1.04577  -1.04571  -1.03986  -1.03981
 Alpha  occ. eigenvalues --   -1.03712  -1.03375  -1.03341  -1.03320  -1.03041
 Alpha  occ. eigenvalues --   -1.03017  -1.02271  -1.02239  -1.02231  -1.02108
 Alpha  occ. eigenvalues --   -1.02020  -1.01994  -1.01916  -1.01904  -1.01787
 Alpha  occ. eigenvalues --   -1.01771  -1.01755  -1.01626  -1.01584  -1.01576
 Alpha  occ. eigenvalues --   -1.01314  -1.00822  -1.00770  -1.00713  -1.00707
 Alpha  occ. eigenvalues --   -1.00004  -0.99950  -0.99886  -0.96224  -0.89330
 Alpha  occ. eigenvalues --   -0.85630  -0.85626  -0.85618  -0.85480  -0.85475
 Alpha  occ. eigenvalues --   -0.85474  -0.85461  -0.85445  -0.85437  -0.84303
 Alpha  occ. eigenvalues --   -0.82512  -0.80984  -0.71952  -0.69642  -0.65097
 Alpha  occ. eigenvalues --   -0.62338  -0.61729  -0.61662  -0.61637  -0.60634
 Alpha  occ. eigenvalues --   -0.58985  -0.58965  -0.58949  -0.58893  -0.58821
 Alpha  occ. eigenvalues --   -0.58796  -0.58769  -0.58730  -0.58560  -0.57385
 Alpha  occ. eigenvalues --   -0.57343  -0.57318  -0.57030  -0.56803  -0.56506
 Alpha  occ. eigenvalues --   -0.56458  -0.56421  -0.56028  -0.55878  -0.55368
 Alpha  occ. eigenvalues --   -0.55358  -0.55319  -0.54442  -0.54173  -0.54145
 Alpha  occ. eigenvalues --   -0.53979  -0.53708  -0.53655  -0.53647  -0.52769
 Alpha  occ. eigenvalues --   -0.52661  -0.52613  -0.52505  -0.52466  -0.51488
 Alpha  occ. eigenvalues --   -0.51485  -0.51465  -0.51382  -0.51326  -0.50812
 Alpha  occ. eigenvalues --   -0.50577  -0.50538  -0.50491  -0.50412  -0.50345
 Alpha  occ. eigenvalues --   -0.50285  -0.50077  -0.50037  -0.50009  -0.49759
 Alpha  occ. eigenvalues --   -0.49666  -0.49629  -0.49514  -0.49496  -0.49287
 Alpha  occ. eigenvalues --   -0.49243  -0.49203  -0.49136  -0.49089  -0.49012
 Alpha  occ. eigenvalues --   -0.48722  -0.48560  -0.48537  -0.48475  -0.47679
 Alpha  occ. eigenvalues --   -0.47660  -0.47189  -0.46484  -0.46049  -0.46031
 Alpha  occ. eigenvalues --   -0.45883  -0.45869  -0.45759  -0.45634  -0.45228
 Alpha  occ. eigenvalues --   -0.45153  -0.45147  -0.44808  -0.44607  -0.44491
 Alpha  occ. eigenvalues --   -0.44483  -0.44449  -0.44298  -0.44236  -0.44212
 Alpha  occ. eigenvalues --   -0.43452  -0.43142  -0.42552  -0.42522  -0.42449
 Alpha  occ. eigenvalues --   -0.42330  -0.42218  -0.42178  -0.42168  -0.41641
 Alpha  occ. eigenvalues --   -0.41627  -0.41589  -0.41042  -0.40994  -0.40785
 Alpha  occ. eigenvalues --   -0.40772  -0.40751  -0.40393  -0.40375  -0.40341
 Alpha  occ. eigenvalues --   -0.40215  -0.40185  -0.40173  -0.40132  -0.39871
 Alpha  occ. eigenvalues --   -0.39365  -0.39268  -0.39237  -0.39142  -0.39055
 Alpha  occ. eigenvalues --   -0.38922  -0.38894  -0.38813  -0.38759  -0.38705
 Alpha  occ. eigenvalues --   -0.38316  -0.38290  -0.38248  -0.38073  -0.37217
 Alpha  occ. eigenvalues --   -0.37191  -0.34694  -0.34655  -0.33682  -0.30453
 Alpha  occ. eigenvalues --   -0.25767
 Alpha virt. eigenvalues --   -0.11996  -0.06354  -0.06296  -0.04852  -0.04817
 Alpha virt. eigenvalues --   -0.04729  -0.01521  -0.01414  -0.01374  -0.01142
 Alpha virt. eigenvalues --   -0.00926  -0.00916  -0.00877  -0.00163  -0.00092

  Beta  occ. eigenvalues -- -197.10818-129.99073-129.99063-129.99051-101.62454
  Beta  occ. eigenvalues --  -22.43243 -19.28538 -19.28512 -19.28454 -19.28439
  Beta  occ. eigenvalues --  -19.28401 -19.28381 -19.28366 -19.28357 -19.28348
  Beta  occ. eigenvalues --  -19.28276 -19.28254 -19.28168 -19.26951 -19.26932
  Beta  occ. eigenvalues --  -19.26925 -19.26872 -19.26866 -19.26856 -19.26849
  Beta  occ. eigenvalues --  -19.26847 -19.26827 -19.26827 -19.26818 -19.26804
  Beta  occ. eigenvalues --  -19.26798 -19.26796 -19.26793 -19.26791 -19.26780
  Beta  occ. eigenvalues --  -19.26767 -19.26765 -19.26755 -19.26746 -19.26721
  Beta  occ. eigenvalues --  -19.26664 -19.26636 -19.24723 -19.24689 -19.24657
  Beta  occ. eigenvalues --  -19.24634 -18.93735 -18.91566 -18.91458 -13.36482
  Beta  occ. eigenvalues --  -13.36464 -13.36457 -10.69409 -10.69405 -10.69404
  Beta  occ. eigenvalues --  -10.69392 -10.69388 -10.69385 -10.69382 -10.69380
  Beta  occ. eigenvalues --  -10.69379 -10.33333 -10.32352 -10.31948 -10.31149
  Beta  occ. eigenvalues --  -10.31143 -10.31099 -10.30534 -10.30471  -9.52912
  Beta  occ. eigenvalues --   -7.28750  -7.27314  -7.27310  -3.21117  -3.21096
  Beta  occ. eigenvalues --   -3.21070  -3.21044  -3.21032  -3.21018  -3.21006
  Beta  occ. eigenvalues --   -3.21003  -3.20997  -3.20865  -3.20858  -3.20831
  Beta  occ. eigenvalues --   -2.74737  -1.85351  -1.85289  -1.85279  -1.85249
  Beta  occ. eigenvalues --   -1.85146  -1.85075  -1.85060  -1.85040  -1.85024
  Beta  occ. eigenvalues --   -1.85014  -1.84999  -1.84944  -1.84394  -1.84283
  Beta  occ. eigenvalues --   -1.84270  -1.84253  -1.84220  -1.84208  -1.84151
  Beta  occ. eigenvalues --   -1.84136  -1.84108  -1.84101  -1.84070  -1.84060
  Beta  occ. eigenvalues --   -1.83961  -1.83920  -1.83884  -1.83879  -1.83863
  Beta  occ. eigenvalues --   -1.83831  -1.83806  -1.83795  -1.83788  -1.83693
  Beta  occ. eigenvalues --   -1.83682  -1.83674  -1.80623  -1.75982  -1.75746
  Beta  occ. eigenvalues --   -1.50187  -1.50174  -1.50166  -1.08611  -1.06985
  Beta  occ. eigenvalues --   -1.06943  -1.06897  -1.06020  -1.06006  -1.05984
  Beta  occ. eigenvalues --   -1.04589  -1.04579  -1.04569  -1.03987  -1.03981
  Beta  occ. eigenvalues --   -1.03645  -1.03343  -1.03302  -1.03288  -1.03039
  Beta  occ. eigenvalues --   -1.03010  -1.02253  -1.02217  -1.02211  -1.02100
  Beta  occ. eigenvalues --   -1.02016  -1.01981  -1.01911  -1.01891  -1.01781
  Beta  occ. eigenvalues --   -1.01769  -1.01752  -1.01622  -1.01582  -1.01561
  Beta  occ. eigenvalues --   -1.01314  -1.00787  -1.00764  -1.00712  -1.00707
  Beta  occ. eigenvalues --   -0.99868  -0.99811  -0.99765  -0.96458  -0.90012
  Beta  occ. eigenvalues --   -0.85630  -0.85626  -0.85618  -0.85480  -0.85475
  Beta  occ. eigenvalues --   -0.85474  -0.85461  -0.85445  -0.85437  -0.84609
  Beta  occ. eigenvalues --   -0.84373  -0.82709  -0.72214  -0.69766  -0.65352
  Beta  occ. eigenvalues --   -0.62338  -0.61728  -0.61662  -0.61636  -0.60851
  Beta  occ. eigenvalues --   -0.58982  -0.58963  -0.58948  -0.58806  -0.58792
  Beta  occ. eigenvalues --   -0.58758  -0.58748  -0.58693  -0.58560  -0.57349
  Beta  occ. eigenvalues --   -0.57200  -0.57149  -0.57034  -0.56937  -0.56508
  Beta  occ. eigenvalues --   -0.56427  -0.56384  -0.55834  -0.55623  -0.55347
  Beta  occ. eigenvalues --   -0.55338  -0.55322  -0.54652  -0.54165  -0.54136
  Beta  occ. eigenvalues --   -0.53967  -0.53676  -0.53632  -0.53599  -0.52838
  Beta  occ. eigenvalues --   -0.52664  -0.52599  -0.52486  -0.52462  -0.51475
  Beta  occ. eigenvalues --   -0.51457  -0.51448  -0.51325  -0.51259  -0.51015
  Beta  occ. eigenvalues --   -0.50573  -0.50479  -0.50471  -0.50343  -0.50249
  Beta  occ. eigenvalues --   -0.50178  -0.50046  -0.50034  -0.49974  -0.49707
  Beta  occ. eigenvalues --   -0.49643  -0.49595  -0.49504  -0.49485  -0.49287
  Beta  occ. eigenvalues --   -0.49221  -0.49202  -0.49107  -0.49074  -0.48991
  Beta  occ. eigenvalues --   -0.48715  -0.48556  -0.48537  -0.48468  -0.47868
  Beta  occ. eigenvalues --   -0.47636  -0.47594  -0.46061  -0.45909  -0.45877
  Beta  occ. eigenvalues --   -0.45816  -0.45677  -0.45576  -0.45227  -0.45169
  Beta  occ. eigenvalues --   -0.45154  -0.45056  -0.44807  -0.44606  -0.44474
  Beta  occ. eigenvalues --   -0.44432  -0.44428  -0.44280  -0.44212  -0.44187
  Beta  occ. eigenvalues --   -0.43446  -0.43247  -0.42502  -0.42463  -0.42418
  Beta  occ. eigenvalues --   -0.42307  -0.42254  -0.42141  -0.42130  -0.41633
  Beta  occ. eigenvalues --   -0.41610  -0.41570  -0.41416  -0.41047  -0.40954
  Beta  occ. eigenvalues --   -0.40761  -0.40717  -0.40689  -0.40379  -0.40364
  Beta  occ. eigenvalues --   -0.40326  -0.40171  -0.40159  -0.40146  -0.39813
  Beta  occ. eigenvalues --   -0.39633  -0.39364  -0.39173  -0.39097  -0.39094
  Beta  occ. eigenvalues --   -0.38907  -0.38862  -0.38817  -0.38744  -0.38703
  Beta  occ. eigenvalues --   -0.38655  -0.38311  -0.38284  -0.38244  -0.37626
  Beta  occ. eigenvalues --   -0.37219  -0.37185  -0.35623  -0.35578  -0.33971
  Beta  occ. eigenvalues --   -0.30874
  Beta virt. eigenvalues --   -0.06352  -0.06297  -0.04851  -0.04816  -0.04728
  Beta virt. eigenvalues --   -0.01517  -0.01410  -0.01368  -0.01136  -0.00921
  Beta virt. eigenvalues --   -0.00911  -0.00873  -0.00153  -0.00081  -0.00044

 Mulliken charges and spin densities:
               1          2
     1  Cl  -0.353228  -0.601589
     2  C   -0.035490  -0.098237
     3  C    0.012179   0.059226
     4  C   -0.034974  -0.093989
     5  C   -0.031586   0.059872
     6  C    0.008550  -0.118130
     7  C   -0.047565   0.060038
     8  H    0.050764   0.004269
     9  H    0.050964   0.004030
    10  H    0.056141  -0.002139
    11  H    0.057293   0.005184
    12  H    0.054540  -0.002108
    13  C    0.006814  -0.267842
    14  C   -0.041871  -0.017038
    15  H    0.077026   0.010964
    16  H    0.094800   0.001060
    17  H    0.088764  -0.001965
    18  O   -0.672420  -0.000567
    19  O   -0.671303  -0.000529
    20  O   -0.666399  -0.001586
    21  O   -0.672948  -0.000543
    22  W    1.716578   0.000356
    23  W    1.661472   0.000482
    24  W    1.673420   0.000164
    25  W    1.682247   0.000218
    26  W    1.663262   0.002706
    27  W    1.710148   0.002437
    28  W    1.610726   0.003331
    29  W    1.672814   0.002783
    30  O   -0.350059  -0.000526
    31  O   -0.394233  -0.000572
    32  O   -0.396105  -0.000614
    33  O   -0.388206  -0.000571
    34  O   -0.672029  -0.000279
    35  O   -0.678246  -0.000015
    36  O   -0.670319  -0.000120
    37  O   -0.672761  -0.000183
    38  O   -0.397532   0.002127
    39  O   -0.395043   0.002168
    40  O   -0.340605   0.000292
    41  O   -0.395087   0.002142
    42  O   -0.677887   0.000035
    43  O   -0.672597   0.000138
    44  O   -0.668589   0.000256
    45  O   -0.674293   0.000084
    46  O   -0.397673   0.002266
    47  O   -0.352084   0.002135
    48  O   -0.394327   0.001789
    49  O   -0.392521   0.002288
    50  W    1.659413   0.002822
    51  W    1.665513   0.002719
    52  W    1.677349   0.003959
    53  W    1.671226   0.002671
    54  O   -0.723901   0.000106
    55  O   -0.706142   0.000014
    56  O   -0.722629   0.000151
    57  O   -0.721657   0.000072
    58  O   -0.703511   0.000074
    59  O   -0.724009   0.000157
    60  O   -0.723428   0.000211
    61  O   -0.718503   0.000199
    62  O   -0.723635  -0.000184
    63  O   -0.706075  -0.000058
    64  O   -0.725029  -0.000201
    65  O   -0.724524  -0.000203
    66  O   -0.884170   0.005310
    67  O   -0.884274   0.007307
    68  O   -0.881479   0.007182
    69  O   -0.889589   0.006488
    70  K    0.850169   0.000192
    71  K    0.848608   0.000217
    72  K    0.847110   0.000215
    73  V    1.202646   0.936878
 Sum of Mulliken charges =  -1.00000  -0.00000

 Dipole moment (field-independent basis, Debye):
    X=             27.9866    Y=            -13.6968    Z=            -30.7253  Tot=             43.7595
 Quadrupole moment (field-independent basis, Debye-Ang):
   XX=           -758.0732   YY=           -711.7105   ZZ=           -782.2821
   XY=            126.6882   XZ=            173.2040   YZ=            -92.9483

 Normal termination of Gaussian 16 at Mon Jun  3 00:00:49 2024.
