 Gaussian 16, Revision C.01,
 Gaussian 16:  ES64L-G16RevC.01  3-Jul-2019

 ----------------------------------------------------------------------
 # def2svp wb97xd scrf=(smd,solvent=acetonitrile) g09default scf=(xqc,m
 axcycle=64) force guess=read nosymm
 ----------------------------------------------------------------------

 ----------
 Title Card
 ----------
 Symbolic Z-matrix:
 Charge = -1 Multiplicity = 1

                          Input orientation:
 ---------------------------------------------------------------------
 Center     Atomic      Atomic             Coordinates (Angstroms)
 Number     Number       Type             X           Y           Z
 ---------------------------------------------------------------------
      1         17           0       -9.647301    8.268108   10.536052
      2          6           0       -8.361790    4.267224   12.206833
      3          6           0       -9.158174    3.941417   11.092618
      4          6           0      -10.071685    2.878617   11.218090
      5          6           0      -10.207873    2.186874   12.417112
      6          6           0       -9.420252    2.531171   13.516786
      7          6           0       -8.492575    3.569212   13.403168
      8          1           0       -7.632372    5.077569   12.140955
      9          1           0      -10.692087    2.609323   10.358573
     10          1           0      -10.934570    1.374762   12.495833
     11          1           0       -9.519359    1.984502   14.456861
     12          1           0       -7.870286    3.842229   14.259201
     13          6           0       -9.106214    4.686645    9.834166
     14          6           0       -8.431905    5.836454    9.624709
     15          1           0       -9.704459    4.268400    9.016675
     16          1           0       -8.463066    6.333922    8.654980
     17          1           0       -7.784447    6.281451   10.379712
     18          8           0       -0.975461   -1.811195    7.460384
     19          8           0       -8.380636   -1.328448    7.462202
     20          8           0       -7.012695    1.340984   10.479730
     21          8           0       -2.333279   -4.398040   10.555068
     22         74           0       -3.389321    0.701811    6.490763
     23         74           0       -5.990484   -3.831884    6.563040
     24         74           0       -3.597413    0.873875   11.406533
     25         74           0       -5.765381   -3.877617   11.478354
     26         74           0       -2.436451   -2.589026    6.391159
     27         74           0       -6.921221   -0.540087    6.359602
     28         74           0       -6.800657   -0.258021   11.573681
     29         74           0       -2.549151   -2.742891   11.611821
     30          8           0       -3.151947    1.890693    5.316422
     31          8           0       -6.127016   -5.081346    5.420220
     32          8           0       -2.669949    1.712651   12.557528
     33          8           0       -6.681497   -4.683345   12.659508
     34          8           0       -2.661513   -0.913931    5.588205
     35          8           0       -6.695892   -2.274271    5.620533
     36          8           0       -5.290592    0.545181   12.358735
     37          8           0       -4.052200   -3.539981   12.408911
     38          8           0        0.328113   -0.041406    9.273731
     39          8           0       -9.691258   -3.031282    9.319962
     40          8           0       -6.355835    3.422243    8.668380
     41          8           0       -3.001043   -6.495600    8.745067
     42          8           0       -1.768168    0.737676    7.475688
     43          8           0       -7.596893   -3.882843    7.543960
     44          8           0       -4.483352    2.194155   10.423901
     45          8           0       -4.870368   -5.237859   10.526998
     46          8           0       -1.607449   -3.524771    5.239343
     47          8           0       -7.797314    0.267030    5.163456
     48          8           0       -8.017243   -0.161225   12.754487
     49          8           0       -1.319188   -2.865839   12.777385
     50         74           0       -1.233173   -0.554902    8.839640
     51         74           0       -8.129751   -2.530437    8.873445
     52         74           0       -5.877481    1.850774    9.045342
     53         74           0       -3.486464   -4.921148    9.161547
     54          8           0       -4.214921   -3.119667    6.070148
     55          8           0       -5.139794   -0.059092    6.018353
     56          8           0       -6.166065   -2.008629   11.917832
     57          8           0       -3.165081   -0.993061   11.914752
     58          8           0       -4.344604    1.579980    7.840827
     59          8           0       -5.008348   -4.693775    7.923285
     60          8           0       -2.304507    0.559998   10.074773
     61          8           0       -7.046576   -3.618770   10.132159
     62          8           0       -2.572604   -3.913000    7.862737
     63          8           0       -6.801356    0.790267    7.801377
     64          8           0       -7.815996   -1.179928   10.148585
     65          8           0       -1.544671   -1.881250   10.144361
     66          8           0       -3.349160   -1.163404    8.014306
     67          8           0       -6.008651   -1.965978    8.034048
     68          8           0       -5.105679   -0.213972    9.942355
     69          8           0       -4.236964   -2.852748    9.976132
     70         19           0       -3.217766   -6.137837    5.648519
     71         19           0       -0.125472    0.019816   12.318775
     72         19           0       -9.285324   -2.819379   12.415518
     73         23           0       -4.677201   -1.545539    8.989978
 ---------------------------------------------------------------------

 SCF Done:  E(RwB97XD) =  -7327.70201916     A.U. after   12 cycles

 Alpha  occ. eigenvalues -- -197.29368-130.00103-130.00037-130.00002-101.48392
 Alpha  occ. eigenvalues --  -22.62500 -19.33609 -19.33603 -19.33602 -19.33578
 Alpha  occ. eigenvalues --  -19.30732 -19.30698 -19.30696 -19.30686 -19.30679
 Alpha  occ. eigenvalues --  -19.30675 -19.30665 -19.30641 -19.30578 -19.30367
 Alpha  occ. eigenvalues --  -19.30350 -19.30171 -19.29333 -19.29331 -19.29305
 Alpha  occ. eigenvalues --  -19.29302 -19.29287 -19.29278 -19.29261 -19.29238
 Alpha  occ. eigenvalues --  -19.29217 -19.29186 -19.29185 -19.29160 -19.29156
 Alpha  occ. eigenvalues --  -19.29122 -19.29107 -19.29102 -19.29101 -19.29081
 Alpha  occ. eigenvalues --  -19.29080 -19.29048 -19.29010 -19.28979 -19.28964
 Alpha  occ. eigenvalues --  -19.28876 -19.11455 -19.11448 -19.11439 -13.37505
 Alpha  occ. eigenvalues --  -13.37437 -13.37397 -10.70435 -10.70428 -10.70427
 Alpha  occ. eigenvalues --  -10.70367 -10.70360 -10.70358 -10.70328 -10.70322
 Alpha  occ. eigenvalues --  -10.70316 -10.29825 -10.29320 -10.29277 -10.29030
 Alpha  occ. eigenvalues --  -10.28933 -10.28924 -10.28077 -10.27422  -9.38868
 Alpha  occ. eigenvalues --   -7.13696  -7.13644  -7.13637  -3.23320  -3.23319
 Alpha  occ. eigenvalues --   -3.23299  -3.23296  -3.23292  -3.23264  -3.23256
 Alpha  occ. eigenvalues --   -3.23252  -3.23228  -3.22972  -3.22953  -3.22774
 Alpha  occ. eigenvalues --   -2.91765  -1.94152  -1.94120  -1.94108  -1.87721
 Alpha  occ. eigenvalues --   -1.87677  -1.87661  -1.87629  -1.87494  -1.87475
 Alpha  occ. eigenvalues --   -1.87469  -1.87452  -1.87431  -1.87275  -1.87246
 Alpha  occ. eigenvalues --   -1.87092  -1.86631  -1.86513  -1.86503  -1.86485
 Alpha  occ. eigenvalues --   -1.86459  -1.86437  -1.86348  -1.86332  -1.86317
 Alpha  occ. eigenvalues --   -1.86300  -1.86290  -1.86265  -1.86148  -1.86138
 Alpha  occ. eigenvalues --   -1.86124  -1.86115  -1.86043  -1.86028  -1.85992
 Alpha  occ. eigenvalues --   -1.85922  -1.85904  -1.85804  -1.85716  -1.85666
 Alpha  occ. eigenvalues --   -1.51196  -1.51132  -1.51094  -1.13038  -1.11265
 Alpha  occ. eigenvalues --   -1.11181  -1.11180  -1.08967  -1.08533  -1.08496
 Alpha  occ. eigenvalues --   -1.08326  -1.07564  -1.07499  -1.07493  -1.06906
 Alpha  occ. eigenvalues --   -1.06895  -1.06877  -1.06324  -1.06300  -1.05334
 Alpha  occ. eigenvalues --   -1.05327  -1.04986  -1.04981  -1.04966  -1.04210
 Alpha  occ. eigenvalues --   -1.04203  -1.04183  -1.04040  -1.04015  -1.04005
 Alpha  occ. eigenvalues --   -1.03948  -1.03926  -1.03901  -1.03769  -1.03751
 Alpha  occ. eigenvalues --   -1.03624  -1.03566  -1.03305  -1.03272  -1.03131
 Alpha  occ. eigenvalues --   -1.03121  -1.03049  -1.02974  -0.94354  -0.86664
 Alpha  occ. eigenvalues --   -0.86609  -0.86570  -0.86485  -0.86471  -0.86470
 Alpha  occ. eigenvalues --   -0.86414  -0.86401  -0.86383  -0.86348  -0.82799
 Alpha  occ. eigenvalues --   -0.79706  -0.71654  -0.69639  -0.67975  -0.64614
 Alpha  occ. eigenvalues --   -0.63988  -0.63914  -0.63895  -0.63299  -0.63279
 Alpha  occ. eigenvalues --   -0.63164  -0.62908  -0.62667  -0.62601  -0.61975
 Alpha  occ. eigenvalues --   -0.61615  -0.61597  -0.61505  -0.61256  -0.61241
 Alpha  occ. eigenvalues --   -0.61185  -0.60419  -0.59480  -0.59454  -0.59446
 Alpha  occ. eigenvalues --   -0.59408  -0.59366  -0.58587  -0.58008  -0.57973
 Alpha  occ. eigenvalues --   -0.57891  -0.57057  -0.57029  -0.57001  -0.56292
 Alpha  occ. eigenvalues --   -0.56272  -0.56117  -0.55708  -0.54870  -0.54815
 Alpha  occ. eigenvalues --   -0.54770  -0.54511  -0.54242  -0.54113  -0.54105
 Alpha  occ. eigenvalues --   -0.54031  -0.53963  -0.53254  -0.53221  -0.53086
 Alpha  occ. eigenvalues --   -0.53048  -0.52909  -0.52726  -0.52695  -0.52650
 Alpha  occ. eigenvalues --   -0.52623  -0.52513  -0.52467  -0.52395  -0.51621
 Alpha  occ. eigenvalues --   -0.51607  -0.51347  -0.51322  -0.51284  -0.51241
 Alpha  occ. eigenvalues --   -0.51185  -0.51167  -0.50936  -0.50785  -0.50612
 Alpha  occ. eigenvalues --   -0.50590  -0.50583  -0.49907  -0.49893  -0.49303
 Alpha  occ. eigenvalues --   -0.49273  -0.49235  -0.49217  -0.49167  -0.49086
 Alpha  occ. eigenvalues --   -0.48900  -0.48080  -0.48033  -0.47921  -0.47633
 Alpha  occ. eigenvalues --   -0.47393  -0.47296  -0.47253  -0.47001  -0.46962
 Alpha  occ. eigenvalues --   -0.46849  -0.46561  -0.46541  -0.46505  -0.46199
 Alpha  occ. eigenvalues --   -0.46149  -0.46109  -0.45604  -0.45109  -0.44928
 Alpha  occ. eigenvalues --   -0.44888  -0.44212  -0.44150  -0.44039  -0.43490
 Alpha  occ. eigenvalues --   -0.43302  -0.43252  -0.43130  -0.43117  -0.43084
 Alpha  occ. eigenvalues --   -0.42730  -0.42708  -0.42676  -0.42604  -0.42594
 Alpha  occ. eigenvalues --   -0.42515  -0.42482  -0.42465  -0.42302  -0.42288
 Alpha  occ. eigenvalues --   -0.42269  -0.42038  -0.41920  -0.41871  -0.41855
 Alpha  occ. eigenvalues --   -0.41201  -0.41185  -0.41133  -0.41049  -0.40564
 Alpha  occ. eigenvalues --   -0.40546  -0.40534  -0.40368  -0.39449  -0.39444
 Alpha  occ. eigenvalues --   -0.36992  -0.32547  -0.29198  -0.25165  -0.25136
 Alpha  occ. eigenvalues --   -0.23503
 Alpha virt. eigenvalues --   -0.09400  -0.09191  -0.08466  -0.08412  -0.06993
 Alpha virt. eigenvalues --   -0.06974  -0.06899  -0.04409  -0.04122  -0.04073
 Alpha virt. eigenvalues --   -0.03723  -0.03492  -0.03441  -0.03231  -0.03122

 Mulliken charges:
               1
     1  Cl  -0.891846
     2  C   -0.081619
     3  C    0.049603
     4  C   -0.080607
     5  C   -0.033843
     6  C   -0.033633
     7  C   -0.049402
     8  H    0.029676
     9  H    0.028961
    10  H    0.040837
    11  H    0.036701
    12  H    0.039519
    13  C   -0.126499
    14  C    0.029019
    15  H    0.020167
    16  H    0.035219
    17  H    0.025353
    18  O   -0.663374
    19  O   -0.662221
    20  O   -0.655186
    21  O   -0.663845
    22  W    1.732959
    23  W    1.675282
    24  W    1.685593
    25  W    1.696013
    26  W    1.676607
    27  W    1.727700
    28  W    1.618233
    29  W    1.686808
    30  O   -0.320292
    31  O   -0.365779
    32  O   -0.367524
    33  O   -0.359327
    34  O   -0.663467
    35  O   -0.670709
    36  O   -0.661115
    37  O   -0.663612
    38  O   -0.367585
    39  O   -0.365040
    40  O   -0.297842
    41  O   -0.364792
    42  O   -0.670144
    43  O   -0.663829
    44  O   -0.659735
    45  O   -0.665835
    46  O   -0.367449
    47  O   -0.320347
    48  O   -0.360880
    49  O   -0.362444
    50  W    1.672977
    51  W    1.679573
    52  W    1.684036
    53  W    1.685552
    54  O   -0.725859
    55  O   -0.707750
    56  O   -0.725726
    57  O   -0.723689
    58  O   -0.705406
    59  O   -0.726523
    60  O   -0.725744
    61  O   -0.720652
    62  O   -0.725095
    63  O   -0.707109
    64  O   -0.725915
    65  O   -0.726236
    66  O   -0.801752
    67  O   -0.801006
    68  O   -0.798342
    69  O   -0.809546
    70  K    0.863970
    71  K    0.862180
    72  K    0.861035
    73  V    1.192597
 Sum of Mulliken charges =  -1.00000

 Dipole moment (field-independent basis, Debye):
    X=             50.1135    Y=            -51.1190    Z=            -38.8687  Tot=             81.4573
 Quadrupole moment (field-independent basis, Debye-Ang):
   XX=          -1040.0071   YY=           -887.7015   ZZ=           -918.2299
   XY=            445.5630   XZ=            448.5936   YZ=           -476.4139

 Normal termination of Gaussian 16 at Mon Jun  3 00:47:20 2024.
