 Gaussian 16, Revision C.01,
 Gaussian 16:  ES64L-G16RevC.01  3-Jul-2019

 ----------------------------------------------------------------------
 # def2svp wb97xd scrf=(smd,solvent=acetonitrile) g09default scf=(xqc,m
 axcycle=64) force guess=read nosymm
 ----------------------------------------------------------------------

 ----------
 Title Card
 ----------
 Symbolic Z-matrix:
 Charge = -1 Multiplicity = 1

                          Input orientation:
 ---------------------------------------------------------------------
 Center     Atomic      Atomic             Coordinates (Angstroms)
 Number     Number       Type             X           Y           Z
 ---------------------------------------------------------------------
      1         17           0       -9.647301    8.268108   10.536052
      2          6           0       -8.361790    4.267224   12.206833
      3          6           0       -9.158174    3.941417   11.092618
      4          6           0      -10.071685    2.878617   11.218090
      5          6           0      -10.207873    2.186874   12.417112
      6          6           0       -9.420252    2.531171   13.516786
      7          6           0       -8.492575    3.569212   13.403168
      8          1           0       -7.632372    5.077569   12.140955
      9          1           0      -10.692087    2.609323   10.358573
     10          1           0      -10.934570    1.374762   12.495833
     11          1           0       -9.519359    1.984502   14.456861
     12          1           0       -7.870286    3.842229   14.259201
     13          6           0       -9.106214    4.686645    9.834166
     14          6           0       -8.431905    5.836454    9.624709
     15          1           0       -9.704459    4.268400    9.016675
     16          1           0       -8.463066    6.333922    8.654980
     17          1           0       -7.784447    6.281451   10.379712
     18          8           0       -0.975461   -1.811195    7.460384
     19          8           0       -8.380636   -1.328448    7.462202
     20          8           0       -7.012695    1.340984   10.479730
     21          8           0       -2.333279   -4.398040   10.555068
     22         74           0       -3.389321    0.701811    6.490763
     23         74           0       -5.990484   -3.831884    6.563040
     24         74           0       -3.597413    0.873875   11.406533
     25         74           0       -5.765381   -3.877617   11.478354
     26         74           0       -2.436451   -2.589026    6.391159
     27         74           0       -6.921221   -0.540087    6.359602
     28         74           0       -6.800657   -0.258021   11.573681
     29         74           0       -2.549151   -2.742891   11.611821
     30          8           0       -3.151947    1.890693    5.316422
     31          8           0       -6.127016   -5.081346    5.420220
     32          8           0       -2.669949    1.712651   12.557528
     33          8           0       -6.681497   -4.683345   12.659508
     34          8           0       -2.661513   -0.913931    5.588205
     35          8           0       -6.695892   -2.274271    5.620533
     36          8           0       -5.290592    0.545181   12.358735
     37          8           0       -4.052200   -3.539981   12.408911
     38          8           0        0.328113   -0.041406    9.273731
     39          8           0       -9.691258   -3.031282    9.319962
     40          8           0       -6.355835    3.422243    8.668380
     41          8           0       -3.001043   -6.495600    8.745067
     42          8           0       -1.768168    0.737676    7.475688
     43          8           0       -7.596893   -3.882843    7.543960
     44          8           0       -4.483352    2.194155   10.423901
     45          8           0       -4.870368   -5.237859   10.526998
     46          8           0       -1.607449   -3.524771    5.239343
     47          8           0       -7.797314    0.267030    5.163456
     48          8           0       -8.017243   -0.161225   12.754487
     49          8           0       -1.319188   -2.865839   12.777385
     50         74           0       -1.233173   -0.554902    8.839640
     51         74           0       -8.129751   -2.530437    8.873445
     52         74           0       -5.877481    1.850774    9.045342
     53         74           0       -3.486464   -4.921148    9.161547
     54          8           0       -4.214921   -3.119667    6.070148
     55          8           0       -5.139794   -0.059092    6.018353
     56          8           0       -6.166065   -2.008629   11.917832
     57          8           0       -3.165081   -0.993061   11.914752
     58          8           0       -4.344604    1.579980    7.840827
     59          8           0       -5.008348   -4.693775    7.923285
     60          8           0       -2.304507    0.559998   10.074773
     61          8           0       -7.046576   -3.618770   10.132159
     62          8           0       -2.572604   -3.913000    7.862737
     63          8           0       -6.801356    0.790267    7.801377
     64          8           0       -7.815996   -1.179928   10.148585
     65          8           0       -1.544671   -1.881250   10.144361
     66          8           0       -3.349160   -1.163404    8.014306
     67          8           0       -6.008651   -1.965978    8.034048
     68          8           0       -5.105679   -0.213972    9.942355
     69          8           0       -4.236964   -2.852748    9.976132
     70         19           0       -3.217766   -6.137837    5.648519
     71         19           0       -0.125472    0.019816   12.318775
     72         19           0       -9.285324   -2.819379   12.415518
     73         23           0       -4.677201   -1.545539    8.989978
 ---------------------------------------------------------------------

 SCF Done:  E(UwB97XD) =  -7327.70199957     A.U. after   35 cycles

 Alpha  occ. eigenvalues --  -19.24659 -18.94067 -18.92991 -18.92933 -13.36486
 Alpha  occ. eigenvalues --  -13.36466 -13.36449 -10.69412 -10.69408 -10.69408
 Alpha  occ. eigenvalues --  -10.69395 -10.69391 -10.69385 -10.69376 -10.69372
 Alpha  occ. eigenvalues --  -10.69370 -10.33052 -10.32247 -10.32005 -10.31042
 Alpha  occ. eigenvalues --  -10.31021 -10.31001 -10.30593 -10.30534  -9.52450
 Alpha  occ. eigenvalues --   -7.27333  -7.26994  -7.26990  -3.21116  -3.21102
 Alpha  occ. eigenvalues --   -3.21070  -3.21049  -3.21031  -3.21023  -3.21010
 Alpha  occ. eigenvalues --   -3.21007  -3.21001  -3.20864  -3.20861  -3.20835
 Alpha  occ. eigenvalues --   -2.78791  -1.85355  -1.85294  -1.85284  -1.85256
 Alpha  occ. eigenvalues --   -1.85151  -1.85081  -1.85064  -1.85045  -1.85031
 Alpha  occ. eigenvalues --   -1.85024  -1.85003  -1.84953  -1.84397  -1.84284
 Alpha  occ. eigenvalues --   -1.84274  -1.84255  -1.84223  -1.84211  -1.84154
 Alpha  occ. eigenvalues --   -1.84138  -1.84111  -1.84103  -1.84072  -1.84062
 Alpha  occ. eigenvalues --   -1.83963  -1.83922  -1.83886  -1.83882  -1.83866
 Alpha  occ. eigenvalues --   -1.83833  -1.83808  -1.83797  -1.83790  -1.83695
 Alpha  occ. eigenvalues --   -1.83685  -1.83676  -1.81955  -1.81622  -1.81589
 Alpha  occ. eigenvalues --   -1.50190  -1.50176  -1.50158  -1.08627  -1.07005
 Alpha  occ. eigenvalues --   -1.06963  -1.06922  -1.06021  -1.06008  -1.05985
 Alpha  occ. eigenvalues --   -1.04588  -1.04578  -1.04571  -1.03984  -1.03979
 Alpha  occ. eigenvalues --   -1.03710  -1.03374  -1.03339  -1.03319  -1.03042
 Alpha  occ. eigenvalues --   -1.03021  -1.02271  -1.02237  -1.02231  -1.02109
 Alpha  occ. eigenvalues --   -1.02022  -1.01998  -1.01917  -1.01905  -1.01789
 Alpha  occ. eigenvalues --   -1.01772  -1.01755  -1.01624  -1.01584  -1.01578
 Alpha  occ. eigenvalues --   -1.01314  -1.00822  -1.00773  -1.00716  -1.00710
 Alpha  occ. eigenvalues --   -1.00001  -0.99948  -0.99885  -0.96228  -0.89336
 Alpha  occ. eigenvalues --   -0.85633  -0.85628  -0.85611  -0.85482  -0.85478
 Alpha  occ. eigenvalues --   -0.85477  -0.85454  -0.85439  -0.85438  -0.84308
 Alpha  occ. eigenvalues --   -0.82510  -0.80974  -0.71956  -0.69642  -0.65102
 Alpha  occ. eigenvalues --   -0.62336  -0.61726  -0.61661  -0.61635  -0.60641
 Alpha  occ. eigenvalues --   -0.58985  -0.58965  -0.58950  -0.58894  -0.58821
 Alpha  occ. eigenvalues --   -0.58792  -0.58765  -0.58727  -0.58559  -0.57383
 Alpha  occ. eigenvalues --   -0.57340  -0.57313  -0.57027  -0.56807  -0.56505
 Alpha  occ. eigenvalues --   -0.56458  -0.56420  -0.56026  -0.55876  -0.55368
 Alpha  occ. eigenvalues --   -0.55358  -0.55319  -0.54440  -0.54176  -0.54148
 Alpha  occ. eigenvalues --   -0.53983  -0.53704  -0.53651  -0.53642  -0.52772
 Alpha  occ. eigenvalues --   -0.52661  -0.52614  -0.52505  -0.52466  -0.51489
 Alpha  occ. eigenvalues --   -0.51486  -0.51466  -0.51384  -0.51326  -0.50815
 Alpha  occ. eigenvalues --   -0.50577  -0.50539  -0.50491  -0.50413  -0.50346
 Alpha  occ. eigenvalues --   -0.50286  -0.50079  -0.50039  -0.50013  -0.49761
 Alpha  occ. eigenvalues --   -0.49669  -0.49633  -0.49515  -0.49497  -0.49289
 Alpha  occ. eigenvalues --   -0.49246  -0.49203  -0.49133  -0.49086  -0.49010
 Alpha  occ. eigenvalues --   -0.48724  -0.48562  -0.48539  -0.48476  -0.47684
 Alpha  occ. eigenvalues --   -0.47664  -0.47196  -0.46485  -0.46051  -0.46031
 Alpha  occ. eigenvalues --   -0.45883  -0.45871  -0.45761  -0.45635  -0.45228
 Alpha  occ. eigenvalues --   -0.45153  -0.45147  -0.44814  -0.44615  -0.44492
 Alpha  occ. eigenvalues --   -0.44485  -0.44452  -0.44298  -0.44241  -0.44218
 Alpha  occ. eigenvalues --   -0.43449  -0.43151  -0.42554  -0.42524  -0.42451
 Alpha  occ. eigenvalues --   -0.42329  -0.42215  -0.42178  -0.42168  -0.41641
 Alpha  occ. eigenvalues --   -0.41627  -0.41588  -0.41043  -0.40996  -0.40787
 Alpha  occ. eigenvalues --   -0.40774  -0.40754  -0.40398  -0.40380  -0.40346
 Alpha  occ. eigenvalues --   -0.40219  -0.40188  -0.40175  -0.40134  -0.39874
 Alpha  occ. eigenvalues --   -0.39364  -0.39270  -0.39238  -0.39145  -0.39055
 Alpha  occ. eigenvalues --   -0.38927  -0.38899  -0.38816  -0.38758  -0.38707
 Alpha  occ. eigenvalues --   -0.38319  -0.38294  -0.38253  -0.38080  -0.37218
 Alpha  occ. eigenvalues --   -0.37192  -0.34682  -0.34644  -0.33687  -0.30459
 Alpha  occ. eigenvalues --   -0.25757
 Alpha virt. eigenvalues --   -0.11985  -0.06341  -0.06285  -0.04842  -0.04807
 Alpha virt. eigenvalues --   -0.04719  -0.01522  -0.01414  -0.01372  -0.01137
 Alpha virt. eigenvalues --   -0.00927  -0.00913  -0.00874  -0.00163  -0.00093

  Beta  occ. eigenvalues -- -197.10804-129.99077-129.99065-129.99043-101.62438
  Beta  occ. eigenvalues --  -22.43230 -19.28537 -19.28515 -19.28454 -19.28440
  Beta  occ. eigenvalues --  -19.28401 -19.28379 -19.28368 -19.28360 -19.28351
  Beta  occ. eigenvalues --  -19.28274 -19.28249 -19.28170 -19.26954 -19.26935
  Beta  occ. eigenvalues --  -19.26928 -19.26875 -19.26870 -19.26861 -19.26852
  Beta  occ. eigenvalues --  -19.26849 -19.26832 -19.26830 -19.26819 -19.26811
  Beta  occ. eigenvalues --  -19.26801 -19.26801 -19.26797 -19.26796 -19.26785
  Beta  occ. eigenvalues --  -19.26768 -19.26767 -19.26761 -19.26750 -19.26721
  Beta  occ. eigenvalues --  -19.26666 -19.26640 -19.24719 -19.24685 -19.24658
  Beta  occ. eigenvalues --  -19.24633 -18.93722 -18.91557 -18.91442 -13.36486
  Beta  occ. eigenvalues --  -13.36466 -13.36449 -10.69412 -10.69408 -10.69408
  Beta  occ. eigenvalues --  -10.69395 -10.69391 -10.69385 -10.69376 -10.69372
  Beta  occ. eigenvalues --  -10.69370 -10.33339 -10.32362 -10.31953 -10.31150
  Beta  occ. eigenvalues --  -10.31146 -10.31103 -10.30533 -10.30474  -9.52896
  Beta  occ. eigenvalues --   -7.28733  -7.27299  -7.27295  -3.21115  -3.21096
  Beta  occ. eigenvalues --   -3.21070  -3.21043  -3.21030  -3.21016  -3.21005
  Beta  occ. eigenvalues --   -3.21001  -3.20995  -3.20863  -3.20857  -3.20830
  Beta  occ. eigenvalues --   -2.74729  -1.85350  -1.85289  -1.85279  -1.85248
  Beta  occ. eigenvalues --   -1.85146  -1.85075  -1.85059  -1.85038  -1.85023
  Beta  occ. eigenvalues --   -1.85014  -1.84998  -1.84944  -1.84394  -1.84282
  Beta  occ. eigenvalues --   -1.84271  -1.84253  -1.84220  -1.84207  -1.84151
  Beta  occ. eigenvalues --   -1.84136  -1.84107  -1.84100  -1.84069  -1.84059
  Beta  occ. eigenvalues --   -1.83960  -1.83919  -1.83884  -1.83879  -1.83863
  Beta  occ. eigenvalues --   -1.83830  -1.83805  -1.83794  -1.83787  -1.83693
  Beta  occ. eigenvalues --   -1.83682  -1.83673  -1.80615  -1.75983  -1.75732
  Beta  occ. eigenvalues --   -1.50190  -1.50176  -1.50158  -1.08609  -1.06984
  Beta  occ. eigenvalues --   -1.06942  -1.06896  -1.06019  -1.06006  -1.05984
  Beta  occ. eigenvalues --   -1.04589  -1.04579  -1.04569  -1.03985  -1.03979
  Beta  occ. eigenvalues --   -1.03643  -1.03341  -1.03301  -1.03288  -1.03041
  Beta  occ. eigenvalues --   -1.03013  -1.02253  -1.02216  -1.02210  -1.02100
  Beta  occ. eigenvalues --   -1.02017  -1.01984  -1.01911  -1.01892  -1.01784
  Beta  occ. eigenvalues --   -1.01770  -1.01752  -1.01620  -1.01581  -1.01562
  Beta  occ. eigenvalues --   -1.01315  -1.00788  -1.00766  -1.00716  -1.00710
  Beta  occ. eigenvalues --   -0.99865  -0.99808  -0.99764  -0.96462  -0.90019
  Beta  occ. eigenvalues --   -0.85633  -0.85628  -0.85611  -0.85482  -0.85478
  Beta  occ. eigenvalues --   -0.85477  -0.85454  -0.85439  -0.85438  -0.84598
  Beta  occ. eigenvalues --   -0.84373  -0.82708  -0.72218  -0.69767  -0.65357
  Beta  occ. eigenvalues --   -0.62336  -0.61726  -0.61661  -0.61635  -0.60858
  Beta  occ. eigenvalues --   -0.58981  -0.58963  -0.58949  -0.58806  -0.58788
  Beta  occ. eigenvalues --   -0.58755  -0.58746  -0.58692  -0.58559  -0.57347
  Beta  occ. eigenvalues --   -0.57198  -0.57145  -0.57036  -0.56936  -0.56507
  Beta  occ. eigenvalues --   -0.56426  -0.56384  -0.55832  -0.55621  -0.55347
  Beta  occ. eigenvalues --   -0.55337  -0.55322  -0.54649  -0.54168  -0.54139
  Beta  occ. eigenvalues --   -0.53971  -0.53672  -0.53628  -0.53594  -0.52841
  Beta  occ. eigenvalues --   -0.52665  -0.52600  -0.52486  -0.52461  -0.51476
  Beta  occ. eigenvalues --   -0.51457  -0.51449  -0.51326  -0.51261  -0.51018
  Beta  occ. eigenvalues --   -0.50574  -0.50478  -0.50472  -0.50344  -0.50249
  Beta  occ. eigenvalues --   -0.50179  -0.50048  -0.50036  -0.49978  -0.49710
  Beta  occ. eigenvalues --   -0.49646  -0.49599  -0.49505  -0.49487  -0.49289
  Beta  occ. eigenvalues --   -0.49224  -0.49202  -0.49104  -0.49070  -0.48987
  Beta  occ. eigenvalues --   -0.48717  -0.48559  -0.48539  -0.48469  -0.47876
  Beta  occ. eigenvalues --   -0.47642  -0.47599  -0.46063  -0.45910  -0.45877
  Beta  occ. eigenvalues --   -0.45816  -0.45678  -0.45576  -0.45228  -0.45170
  Beta  occ. eigenvalues --   -0.45154  -0.45057  -0.44813  -0.44613  -0.44474
  Beta  occ. eigenvalues --   -0.44436  -0.44431  -0.44280  -0.44217  -0.44191
  Beta  occ. eigenvalues --   -0.43442  -0.43256  -0.42505  -0.42464  -0.42420
  Beta  occ. eigenvalues --   -0.42305  -0.42253  -0.42141  -0.42131  -0.41635
  Beta  occ. eigenvalues --   -0.41611  -0.41569  -0.41419  -0.41048  -0.40956
  Beta  occ. eigenvalues --   -0.40763  -0.40720  -0.40692  -0.40384  -0.40369
  Beta  occ. eigenvalues --   -0.40331  -0.40173  -0.40161  -0.40149  -0.39816
  Beta  occ. eigenvalues --   -0.39637  -0.39363  -0.39175  -0.39100  -0.39096
  Beta  occ. eigenvalues --   -0.38910  -0.38867  -0.38820  -0.38744  -0.38703
  Beta  occ. eigenvalues --   -0.38657  -0.38313  -0.38288  -0.38249  -0.37619
  Beta  occ. eigenvalues --   -0.37219  -0.37187  -0.35610  -0.35566  -0.33976
  Beta  occ. eigenvalues --   -0.30872
  Beta virt. eigenvalues --   -0.06340  -0.06285  -0.04841  -0.04806  -0.04719
  Beta virt. eigenvalues --   -0.01518  -0.01410  -0.01367  -0.01131  -0.00922
  Beta virt. eigenvalues --   -0.00908  -0.00870  -0.00153  -0.00081  -0.00045

 Mulliken charges and spin densities:
               1          2
     1  Cl  -0.353887  -0.600916
     2  C   -0.035528  -0.098493
     3  C    0.012053   0.059471
     4  C   -0.034982  -0.094191
     5  C   -0.031648   0.060003
     6  C    0.008721  -0.118434
     7  C   -0.047547   0.060189
     8  H    0.050719   0.004274
     9  H    0.051007   0.004038
    10  H    0.056154  -0.002144
    11  H    0.057321   0.005196
    12  H    0.054549  -0.002113
    13  C    0.006816  -0.268410
    14  C   -0.041307  -0.016954
    15  H    0.076992   0.010980
    16  H    0.094789   0.001028
    17  H    0.088941  -0.001934
    18  O   -0.672298  -0.000566
    19  O   -0.671039  -0.000528
    20  O   -0.666304  -0.001577
    21  O   -0.672846  -0.000542
    22  W    1.716172   0.000355
    23  W    1.660941   0.000483
    24  W    1.672966   0.000164
    25  W    1.681836   0.000219
    26  W    1.662923   0.002706
    27  W    1.709845   0.002439
    28  W    1.610287   0.003331
    29  W    1.672385   0.002785
    30  O   -0.350177  -0.000525
    31  O   -0.394148  -0.000571
    32  O   -0.396001  -0.000614
    33  O   -0.388096  -0.000570
    34  O   -0.671808  -0.000280
    35  O   -0.678124  -0.000015
    36  O   -0.670151  -0.000121
    37  O   -0.672562  -0.000184
    38  O   -0.397470   0.002128
    39  O   -0.395215   0.002172
    40  O   -0.340820   0.000314
    41  O   -0.394894   0.002144
    42  O   -0.677749   0.000037
    43  O   -0.672469   0.000140
    44  O   -0.668329   0.000258
    45  O   -0.674231   0.000086
    46  O   -0.397374   0.002265
    47  O   -0.352026   0.002134
    48  O   -0.394220   0.001786
    49  O   -0.392592   0.002286
    50  W    1.659004   0.002828
    51  W    1.665120   0.002727
    52  W    1.677201   0.003960
    53  W    1.670808   0.002677
    54  O   -0.723751   0.000104
    55  O   -0.705894   0.000012
    56  O   -0.722476   0.000148
    57  O   -0.721516   0.000072
    58  O   -0.703233   0.000075
    59  O   -0.723802   0.000157
    60  O   -0.723297   0.000212
    61  O   -0.718272   0.000200
    62  O   -0.723481  -0.000184
    63  O   -0.705828  -0.000057
    64  O   -0.724982  -0.000200
    65  O   -0.724386  -0.000202
    66  O   -0.884010   0.005307
    67  O   -0.884132   0.007306
    68  O   -0.881387   0.007199
    69  O   -0.889339   0.006502
    70  K    0.850308   0.000193
    71  K    0.848487   0.000218
    72  K    0.847195   0.000215
    73  V    1.202093   0.936802
 Sum of Mulliken charges =  -1.00000   0.00000

 Dipole moment (field-independent basis, Debye):
    X=             27.9684    Y=            -13.7275    Z=            -30.7484  Tot=             43.7737
 Quadrupole moment (field-independent basis, Debye-Ang):
   XX=           -757.9808   YY=           -711.7224   ZZ=           -782.7632
   XY=            126.8047   XZ=            173.1166   YZ=            -93.2128

 Normal termination of Gaussian 16 at Mon Jun  3 00:36:27 2024.
