 Gaussian 16, Revision C.01,
 Gaussian 16:  ES64L-G16RevC.01  3-Jul-2019

 ----------------------------------------------------------------------
 # def2svp wb97xd scrf=(smd,solvent=acetonitrile) g09default scf=(xqc,m
 axcycle=64) force guess=read nosymm
 ----------------------------------------------------------------------

 ----------
 Title Card
 ----------
 Symbolic Z-matrix:
 Charge = -1 Multiplicity = 1

                          Input orientation:
 ---------------------------------------------------------------------
 Center     Atomic      Atomic             Coordinates (Angstroms)
 Number     Number       Type             X           Y           Z
 ---------------------------------------------------------------------
      1         17           0       -9.650720    8.268498   10.535492
      2          6           0       -8.365171    4.270261   12.205552
      3          6           0       -9.162314    3.943887   11.092130
      4          6           0      -10.075454    2.880870   11.218686
      5          6           0      -10.208127    2.187569   12.417423
      6          6           0       -9.417392    2.530386   13.515226
      7          6           0       -8.492249    3.570624   13.401327
      8          1           0       -7.638363    5.082940   12.140193
      9          1           0      -10.698544    2.612631   10.360828
     10          1           0      -10.935268    1.375990   12.497475
     11          1           0       -9.512396    1.981371   14.454418
     12          1           0       -7.869658    3.845001   14.256641
     13          6           0       -9.111613    4.690116    9.834129
     14          6           0       -8.433800    5.837925    9.625292
     15          1           0       -9.713445    4.274913    9.017664
     16          1           0       -8.466007    6.338973    8.657479
     17          1           0       -7.781187    6.277186   10.379381
     18          8           0       -0.975475   -1.812910    7.459460
     19          8           0       -8.379447   -1.327546    7.462149
     20          8           0       -7.011718    1.339773   10.480986
     21          8           0       -2.332723   -4.397926   10.555037
     22         74           0       -3.387328    0.703828    6.493062
     23         74           0       -5.991039   -3.834024    6.564331
     24         74           0       -3.595130    0.874912   11.404790
     25         74           0       -5.766246   -3.879880   11.477235
     26         74           0       -2.438005   -2.588463    6.388975
     27         74           0       -6.918445   -0.541063    6.357736
     28         74           0       -6.797996   -0.259396   11.576140
     29         74           0       -2.550233   -2.743138   11.613507
     30          8           0       -3.149257    1.893888    5.320258
     31          8           0       -6.128279   -5.083392    5.421405
     32          8           0       -2.667950    1.713844   12.556005
     33          8           0       -6.681552   -4.686605   12.658088
     34          8           0       -2.661688   -0.913208    5.587998
     35          8           0       -6.695082   -2.275232    5.620620
     36          8           0       -5.288028    0.544249   12.358921
     37          8           0       -4.052699   -3.540824   12.408952
     38          8           0        0.330530   -0.045713    9.273047
     39          8           0       -9.691625   -3.028583    9.319258
     40          8           0       -6.358222    3.420831    8.669346
     41          8           0       -2.998549   -6.495636    8.745296
     42          8           0       -1.766491    0.736674    7.476536
     43          8           0       -7.597022   -3.882723    7.544707
     44          8           0       -4.482510    2.194046   10.423655
     45          8           0       -4.869754   -5.238422   10.526029
     46          8           0       -1.609069   -3.523798    5.236441
     47          8           0       -7.794529    0.265451    5.161204
     48          8           0       -8.013952   -0.161094   12.757343
     49          8           0       -1.320788   -2.866565   12.779526
     50         74           0       -1.231305   -0.558415    8.839680
     51         74           0       -8.129972   -2.528317    8.873525
     52         74           0       -5.879087    1.849541    9.045852
     53         74           0       -3.484344   -4.920993    9.161149
     54          8           0       -4.215574   -3.120525    6.069376
     55          8           0       -5.138254   -0.058186    6.018200
     56          8           0       -6.165994   -2.010362   11.919248
     57          8           0       -3.163646   -0.993071   11.914741
     58          8           0       -4.343917    1.580273    7.842015
     59          8           0       -5.007945   -4.695542    7.922813
     60          8           0       -2.302027    0.559427   10.074663
     61          8           0       -7.047398   -3.619344   10.132527
     62          8           0       -2.572701   -3.913536    7.861437
     63          8           0       -6.800611    0.789685    7.801099
     64          8           0       -7.815141   -1.180118   10.150049
     65          8           0       -1.543260   -1.882380   10.145211
     66          8           0       -3.348478   -1.163827    8.014500
     67          8           0       -6.007885   -1.966532    8.034134
     68          8           0       -5.104567   -0.214513    9.942525
     69          8           0       -4.236775   -2.853147    9.976063
     70         19           0       -3.218578   -6.139000    5.648598
     71         19           0       -0.126700    0.014989   12.317640
     72         19           0       -9.286145   -2.819077   12.413510
     73         23           0       -4.676466   -1.545933    8.989946
 ---------------------------------------------------------------------

 SCF Done:  E(RwB97XD) =  -7327.70204588     A.U. after   12 cycles

 Alpha  occ. eigenvalues -- -197.29357-130.00104-130.00029-130.00008-101.48391
 Alpha  occ. eigenvalues --  -22.62490 -19.33609 -19.33602 -19.33600 -19.33576
 Alpha  occ. eigenvalues --  -19.30732 -19.30696 -19.30695 -19.30689 -19.30676
 Alpha  occ. eigenvalues --  -19.30671 -19.30667 -19.30645 -19.30581 -19.30371
 Alpha  occ. eigenvalues --  -19.30349 -19.30171 -19.29338 -19.29335 -19.29309
 Alpha  occ. eigenvalues --  -19.29306 -19.29293 -19.29282 -19.29269 -19.29246
 Alpha  occ. eigenvalues --  -19.29221 -19.29188 -19.29187 -19.29164 -19.29161
 Alpha  occ. eigenvalues --  -19.29128 -19.29113 -19.29103 -19.29102 -19.29087
 Alpha  occ. eigenvalues --  -19.29084 -19.29056 -19.29014 -19.28983 -19.28968
 Alpha  occ. eigenvalues --  -19.28879 -19.11446 -19.11438 -19.11429 -13.37506
 Alpha  occ. eigenvalues --  -13.37428 -13.37402 -10.70435 -10.70428 -10.70428
 Alpha  occ. eigenvalues --  -10.70358 -10.70351 -10.70350 -10.70333 -10.70327
 Alpha  occ. eigenvalues --  -10.70321 -10.29826 -10.29318 -10.29278 -10.29028
 Alpha  occ. eigenvalues --  -10.28935 -10.28920 -10.28086 -10.27418  -9.38867
 Alpha  occ. eigenvalues --   -7.13695  -7.13642  -7.13637  -3.23319  -3.23319
 Alpha  occ. eigenvalues --   -3.23299  -3.23295  -3.23292  -3.23261  -3.23254
 Alpha  occ. eigenvalues --   -3.23250  -3.23227  -3.22970  -3.22952  -3.22772
 Alpha  occ. eigenvalues --   -2.91759  -1.94147  -1.94115  -1.94104  -1.87720
 Alpha  occ. eigenvalues --   -1.87675  -1.87661  -1.87626  -1.87493  -1.87473
 Alpha  occ. eigenvalues --   -1.87471  -1.87453  -1.87430  -1.87276  -1.87247
 Alpha  occ. eigenvalues --   -1.87091  -1.86631  -1.86513  -1.86503  -1.86485
 Alpha  occ. eigenvalues --   -1.86458  -1.86436  -1.86349  -1.86331  -1.86316
 Alpha  occ. eigenvalues --   -1.86300  -1.86288  -1.86264  -1.86148  -1.86138
 Alpha  occ. eigenvalues --   -1.86124  -1.86114  -1.86043  -1.86027  -1.85993
 Alpha  occ. eigenvalues --   -1.85922  -1.85902  -1.85804  -1.85716  -1.85665
 Alpha  occ. eigenvalues --   -1.51196  -1.51124  -1.51098  -1.13035  -1.11262
 Alpha  occ. eigenvalues --   -1.11178  -1.11176  -1.08967  -1.08534  -1.08497
 Alpha  occ. eigenvalues --   -1.08325  -1.07564  -1.07498  -1.07492  -1.06907
 Alpha  occ. eigenvalues --   -1.06895  -1.06877  -1.06322  -1.06297  -1.05337
 Alpha  occ. eigenvalues --   -1.05330  -1.04987  -1.04981  -1.04966  -1.04213
 Alpha  occ. eigenvalues --   -1.04207  -1.04184  -1.04041  -1.04015  -1.04004
 Alpha  occ. eigenvalues --   -1.03948  -1.03927  -1.03901  -1.03768  -1.03754
 Alpha  occ. eigenvalues --   -1.03624  -1.03568  -1.03309  -1.03273  -1.03134
 Alpha  occ. eigenvalues --   -1.03124  -1.03053  -1.02977  -0.94353  -0.86664
 Alpha  occ. eigenvalues --   -0.86602  -0.86574  -0.86488  -0.86472  -0.86471
 Alpha  occ. eigenvalues --   -0.86407  -0.86394  -0.86388  -0.86353  -0.82798
 Alpha  occ. eigenvalues --   -0.79705  -0.71651  -0.69638  -0.67975  -0.64612
 Alpha  occ. eigenvalues --   -0.63985  -0.63913  -0.63894  -0.63296  -0.63274
 Alpha  occ. eigenvalues --   -0.63162  -0.62909  -0.62665  -0.62601  -0.61970
 Alpha  occ. eigenvalues --   -0.61613  -0.61594  -0.61502  -0.61254  -0.61239
 Alpha  occ. eigenvalues --   -0.61185  -0.60419  -0.59479  -0.59453  -0.59445
 Alpha  occ. eigenvalues --   -0.59405  -0.59365  -0.58594  -0.58008  -0.57973
 Alpha  occ. eigenvalues --   -0.57891  -0.57055  -0.57028  -0.57000  -0.56290
 Alpha  occ. eigenvalues --   -0.56270  -0.56116  -0.55709  -0.54871  -0.54814
 Alpha  occ. eigenvalues --   -0.54770  -0.54510  -0.54242  -0.54114  -0.54106
 Alpha  occ. eigenvalues --   -0.54032  -0.53963  -0.53257  -0.53223  -0.53088
 Alpha  occ. eigenvalues --   -0.53050  -0.52910  -0.52730  -0.52697  -0.52652
 Alpha  occ. eigenvalues --   -0.52624  -0.52513  -0.52467  -0.52392  -0.51622
 Alpha  occ. eigenvalues --   -0.51608  -0.51351  -0.51325  -0.51289  -0.51245
 Alpha  occ. eigenvalues --   -0.51186  -0.51168  -0.50941  -0.50787  -0.50615
 Alpha  occ. eigenvalues --   -0.50593  -0.50585  -0.49914  -0.49897  -0.49303
 Alpha  occ. eigenvalues --   -0.49273  -0.49233  -0.49218  -0.49167  -0.49087
 Alpha  occ. eigenvalues --   -0.48901  -0.48082  -0.48033  -0.47922  -0.47629
 Alpha  occ. eigenvalues --   -0.47395  -0.47296  -0.47253  -0.47005  -0.46966
 Alpha  occ. eigenvalues --   -0.46858  -0.46567  -0.46552  -0.46504  -0.46201
 Alpha  occ. eigenvalues --   -0.46152  -0.46111  -0.45609  -0.45110  -0.44930
 Alpha  occ. eigenvalues --   -0.44891  -0.44211  -0.44151  -0.44040  -0.43491
 Alpha  occ. eigenvalues --   -0.43305  -0.43257  -0.43133  -0.43121  -0.43087
 Alpha  occ. eigenvalues --   -0.42736  -0.42714  -0.42680  -0.42607  -0.42596
 Alpha  occ. eigenvalues --   -0.42518  -0.42485  -0.42468  -0.42305  -0.42291
 Alpha  occ. eigenvalues --   -0.42271  -0.42040  -0.41921  -0.41873  -0.41858
 Alpha  occ. eigenvalues --   -0.41209  -0.41190  -0.41134  -0.41056  -0.40569
 Alpha  occ. eigenvalues --   -0.40551  -0.40541  -0.40369  -0.39452  -0.39445
 Alpha  occ. eigenvalues --   -0.36998  -0.32547  -0.29202  -0.25164  -0.25135
 Alpha  occ. eigenvalues --   -0.23497
 Alpha virt. eigenvalues --   -0.09392  -0.09185  -0.08451  -0.08398  -0.06980
 Alpha virt. eigenvalues --   -0.06963  -0.06887  -0.04401  -0.04118  -0.04068
 Alpha virt. eigenvalues --   -0.03726  -0.03494  -0.03442  -0.03231  -0.03116

 Mulliken charges:
               1
     1  Cl  -0.891979
     2  C   -0.081914
     3  C    0.049655
     4  C   -0.080833
     5  C   -0.033899
     6  C   -0.033537
     7  C   -0.049340
     8  H    0.029586
     9  H    0.028954
    10  H    0.040833
    11  H    0.036743
    12  H    0.039459
    13  C   -0.126782
    14  C    0.029920
    15  H    0.020054
    16  H    0.035105
    17  H    0.025619
    18  O   -0.663187
    19  O   -0.661940
    20  O   -0.655148
    21  O   -0.663684
    22  W    1.732482
    23  W    1.674661
    24  W    1.685030
    25  W    1.695503
    26  W    1.676270
    27  W    1.727320
    28  W    1.617677
    29  W    1.686268
    30  O   -0.320175
    31  O   -0.365808
    32  O   -0.367479
    33  O   -0.359038
    34  O   -0.663150
    35  O   -0.670566
    36  O   -0.660939
    37  O   -0.663377
    38  O   -0.367550
    39  O   -0.364929
    40  O   -0.297907
    41  O   -0.364868
    42  O   -0.669994
    43  O   -0.663686
    44  O   -0.659417
    45  O   -0.665774
    46  O   -0.367510
    47  O   -0.320343
    48  O   -0.360668
    49  O   -0.362517
    50  W    1.672485
    51  W    1.679013
    52  W    1.683783
    53  W    1.685099
    54  O   -0.725619
    55  O   -0.707441
    56  O   -0.725518
    57  O   -0.723497
    58  O   -0.705100
    59  O   -0.726226
    60  O   -0.725536
    61  O   -0.720370
    62  O   -0.724871
    63  O   -0.706831
    64  O   -0.725856
    65  O   -0.726041
    66  O   -0.801625
    67  O   -0.800819
    68  O   -0.798203
    69  O   -0.809267
    70  K    0.864093
    71  K    0.862081
    72  K    0.861173
    73  V    1.191893
 Sum of Mulliken charges =  -1.00000

 Dipole moment (field-independent basis, Debye):
    X=             50.0948    Y=            -51.1333    Z=            -38.8863  Tot=             81.4632
 Quadrupole moment (field-independent basis, Debye-Ang):
   XX=          -1040.0412   YY=           -887.6343   ZZ=           -918.6426
   XY=            445.7080   XZ=            448.4804   YZ=           -476.5850

 Normal termination of Gaussian 16 at Mon Jun  3 01:25:14 2024.
