 Gaussian 16, Revision C.01,
 Gaussian 16:  ES64L-G16RevC.01  3-Jul-2019

 ----------------------------------------------------------------------
 # def2svp wb97xd scrf=(smd,solvent=acetonitrile) g09default scf=(xqc,m
 axcycle=64) force guess=read nosymm
 ----------------------------------------------------------------------

 ----------
 Title Card
 ----------
 Symbolic Z-matrix:
 Charge = -1 Multiplicity = 1

                          Input orientation:
 ---------------------------------------------------------------------
 Center     Atomic      Atomic             Coordinates (Angstroms)
 Number     Number       Type             X           Y           Z
 ---------------------------------------------------------------------
      1         17           0       -9.650720    8.268498   10.535492
      2          6           0       -8.365171    4.270261   12.205552
      3          6           0       -9.162314    3.943887   11.092130
      4          6           0      -10.075454    2.880870   11.218686
      5          6           0      -10.208127    2.187569   12.417423
      6          6           0       -9.417392    2.530386   13.515226
      7          6           0       -8.492249    3.570624   13.401327
      8          1           0       -7.638363    5.082940   12.140193
      9          1           0      -10.698544    2.612631   10.360828
     10          1           0      -10.935268    1.375990   12.497475
     11          1           0       -9.512396    1.981371   14.454418
     12          1           0       -7.869658    3.845001   14.256641
     13          6           0       -9.111613    4.690116    9.834129
     14          6           0       -8.433800    5.837925    9.625292
     15          1           0       -9.713445    4.274913    9.017664
     16          1           0       -8.466007    6.338973    8.657479
     17          1           0       -7.781187    6.277186   10.379381
     18          8           0       -0.975475   -1.812910    7.459460
     19          8           0       -8.379447   -1.327546    7.462149
     20          8           0       -7.011718    1.339773   10.480986
     21          8           0       -2.332723   -4.397926   10.555037
     22         74           0       -3.387328    0.703828    6.493062
     23         74           0       -5.991039   -3.834024    6.564331
     24         74           0       -3.595130    0.874912   11.404790
     25         74           0       -5.766246   -3.879880   11.477235
     26         74           0       -2.438005   -2.588463    6.388975
     27         74           0       -6.918445   -0.541063    6.357736
     28         74           0       -6.797996   -0.259396   11.576140
     29         74           0       -2.550233   -2.743138   11.613507
     30          8           0       -3.149257    1.893888    5.320258
     31          8           0       -6.128279   -5.083392    5.421405
     32          8           0       -2.667950    1.713844   12.556005
     33          8           0       -6.681552   -4.686605   12.658088
     34          8           0       -2.661688   -0.913208    5.587998
     35          8           0       -6.695082   -2.275232    5.620620
     36          8           0       -5.288028    0.544249   12.358921
     37          8           0       -4.052699   -3.540824   12.408952
     38          8           0        0.330530   -0.045713    9.273047
     39          8           0       -9.691625   -3.028583    9.319258
     40          8           0       -6.358222    3.420831    8.669346
     41          8           0       -2.998549   -6.495636    8.745296
     42          8           0       -1.766491    0.736674    7.476536
     43          8           0       -7.597022   -3.882723    7.544707
     44          8           0       -4.482510    2.194046   10.423655
     45          8           0       -4.869754   -5.238422   10.526029
     46          8           0       -1.609069   -3.523798    5.236441
     47          8           0       -7.794529    0.265451    5.161204
     48          8           0       -8.013952   -0.161094   12.757343
     49          8           0       -1.320788   -2.866565   12.779526
     50         74           0       -1.231305   -0.558415    8.839680
     51         74           0       -8.129972   -2.528317    8.873525
     52         74           0       -5.879087    1.849541    9.045852
     53         74           0       -3.484344   -4.920993    9.161149
     54          8           0       -4.215574   -3.120525    6.069376
     55          8           0       -5.138254   -0.058186    6.018200
     56          8           0       -6.165994   -2.010362   11.919248
     57          8           0       -3.163646   -0.993071   11.914741
     58          8           0       -4.343917    1.580273    7.842015
     59          8           0       -5.007945   -4.695542    7.922813
     60          8           0       -2.302027    0.559427   10.074663
     61          8           0       -7.047398   -3.619344   10.132527
     62          8           0       -2.572701   -3.913536    7.861437
     63          8           0       -6.800611    0.789685    7.801099
     64          8           0       -7.815141   -1.180118   10.150049
     65          8           0       -1.543260   -1.882380   10.145211
     66          8           0       -3.348478   -1.163827    8.014500
     67          8           0       -6.007885   -1.966532    8.034134
     68          8           0       -5.104567   -0.214513    9.942525
     69          8           0       -4.236775   -2.853147    9.976063
     70         19           0       -3.218578   -6.139000    5.648598
     71         19           0       -0.126700    0.014989   12.317640
     72         19           0       -9.286145   -2.819077   12.413510
     73         23           0       -4.676466   -1.545933    8.989946
 ---------------------------------------------------------------------

 SCF Done:  E(UwB97XD) =  -7327.70202184     A.U. after   39 cycles

 Alpha  occ. eigenvalues --  -19.24655 -18.94054 -18.92979 -18.92917 -13.36486
 Alpha  occ. eigenvalues --  -13.36471 -13.36438 -10.69413 -10.69409 -10.69408
 Alpha  occ. eigenvalues --  -10.69400 -10.69396 -10.69390 -10.69366 -10.69362
 Alpha  occ. eigenvalues --  -10.69360 -10.33058 -10.32257 -10.32009 -10.31041
 Alpha  occ. eigenvalues --  -10.31022 -10.31006 -10.30593 -10.30537  -9.52439
 Alpha  occ. eigenvalues --   -7.27322  -7.26983  -7.26980  -3.21112  -3.21101
 Alpha  occ. eigenvalues --   -3.21069  -3.21049  -3.21029  -3.21021  -3.21009
 Alpha  occ. eigenvalues --   -3.21005  -3.21001  -3.20863  -3.20858  -3.20833
 Alpha  occ. eigenvalues --   -2.78782  -1.85353  -1.85293  -1.85284  -1.85255
 Alpha  occ. eigenvalues --   -1.85150  -1.85082  -1.85065  -1.85045  -1.85029
 Alpha  occ. eigenvalues --   -1.85022  -1.85002  -1.84952  -1.84397  -1.84284
 Alpha  occ. eigenvalues --   -1.84274  -1.84255  -1.84223  -1.84210  -1.84154
 Alpha  occ. eigenvalues --   -1.84137  -1.84110  -1.84102  -1.84071  -1.84062
 Alpha  occ. eigenvalues --   -1.83961  -1.83921  -1.83886  -1.83882  -1.83865
 Alpha  occ. eigenvalues --   -1.83832  -1.83807  -1.83796  -1.83789  -1.83694
 Alpha  occ. eigenvalues --   -1.83684  -1.83674  -1.81946  -1.81615  -1.81580
 Alpha  occ. eigenvalues --   -1.50191  -1.50181  -1.50148  -1.08625  -1.07004
 Alpha  occ. eigenvalues --   -1.06962  -1.06922  -1.06020  -1.06008  -1.05985
 Alpha  occ. eigenvalues --   -1.04588  -1.04577  -1.04571  -1.03982  -1.03977
 Alpha  occ. eigenvalues --   -1.03708  -1.03372  -1.03338  -1.03318  -1.03045
 Alpha  occ. eigenvalues --   -1.03024  -1.02269  -1.02237  -1.02231  -1.02109
 Alpha  occ. eigenvalues --   -1.02025  -1.01998  -1.01918  -1.01907  -1.01791
 Alpha  occ. eigenvalues --   -1.01773  -1.01756  -1.01624  -1.01585  -1.01579
 Alpha  occ. eigenvalues --   -1.01315  -1.00822  -1.00777  -1.00720  -1.00715
 Alpha  occ. eigenvalues --   -0.99999  -0.99946  -0.99883  -0.96230  -0.89343
 Alpha  occ. eigenvalues --   -0.85634  -0.85632  -0.85602  -0.85487  -0.85479
 Alpha  occ. eigenvalues --   -0.85478  -0.85445  -0.85444  -0.85430  -0.84309
 Alpha  occ. eigenvalues --   -0.82510  -0.80967  -0.71957  -0.69646  -0.65105
 Alpha  occ. eigenvalues --   -0.62334  -0.61723  -0.61660  -0.61633  -0.60649
 Alpha  occ. eigenvalues --   -0.58985  -0.58964  -0.58950  -0.58894  -0.58821
 Alpha  occ. eigenvalues --   -0.58788  -0.58760  -0.58723  -0.58558  -0.57379
 Alpha  occ. eigenvalues --   -0.57337  -0.57310  -0.57024  -0.56810  -0.56504
 Alpha  occ. eigenvalues --   -0.56457  -0.56419  -0.56024  -0.55873  -0.55368
 Alpha  occ. eigenvalues --   -0.55358  -0.55319  -0.54437  -0.54179  -0.54151
 Alpha  occ. eigenvalues --   -0.53988  -0.53700  -0.53645  -0.53637  -0.52779
 Alpha  occ. eigenvalues --   -0.52662  -0.52614  -0.52504  -0.52466  -0.51491
 Alpha  occ. eigenvalues --   -0.51486  -0.51467  -0.51385  -0.51327  -0.50818
 Alpha  occ. eigenvalues --   -0.50577  -0.50540  -0.50491  -0.50412  -0.50346
 Alpha  occ. eigenvalues --   -0.50286  -0.50083  -0.50042  -0.50015  -0.49765
 Alpha  occ. eigenvalues --   -0.49672  -0.49638  -0.49516  -0.49499  -0.49292
 Alpha  occ. eigenvalues --   -0.49249  -0.49204  -0.49131  -0.49082  -0.49005
 Alpha  occ. eigenvalues --   -0.48725  -0.48563  -0.48540  -0.48479  -0.47691
 Alpha  occ. eigenvalues --   -0.47670  -0.47203  -0.46485  -0.46051  -0.46033
 Alpha  occ. eigenvalues --   -0.45884  -0.45872  -0.45761  -0.45636  -0.45228
 Alpha  occ. eigenvalues --   -0.45153  -0.45147  -0.44822  -0.44623  -0.44494
 Alpha  occ. eigenvalues --   -0.44486  -0.44455  -0.44298  -0.44247  -0.44225
 Alpha  occ. eigenvalues --   -0.43445  -0.43153  -0.42556  -0.42527  -0.42455
 Alpha  occ. eigenvalues --   -0.42329  -0.42217  -0.42178  -0.42169  -0.41641
 Alpha  occ. eigenvalues --   -0.41627  -0.41587  -0.41044  -0.40997  -0.40789
 Alpha  occ. eigenvalues --   -0.40777  -0.40759  -0.40405  -0.40387  -0.40351
 Alpha  occ. eigenvalues --   -0.40221  -0.40192  -0.40179  -0.40137  -0.39876
 Alpha  occ. eigenvalues --   -0.39363  -0.39272  -0.39241  -0.39149  -0.39055
 Alpha  occ. eigenvalues --   -0.38933  -0.38905  -0.38820  -0.38758  -0.38709
 Alpha  occ. eigenvalues --   -0.38322  -0.38298  -0.38259  -0.38089  -0.37218
 Alpha  occ. eigenvalues --   -0.37194  -0.34674  -0.34636  -0.33688  -0.30469
 Alpha  occ. eigenvalues --   -0.25746
 Alpha virt. eigenvalues --   -0.11973  -0.06325  -0.06271  -0.04829  -0.04794
 Alpha virt. eigenvalues --   -0.04708  -0.01524  -0.01414  -0.01371  -0.01132
 Alpha virt. eigenvalues --   -0.00928  -0.00910  -0.00872  -0.00164  -0.00093

  Beta  occ. eigenvalues -- -197.10790-129.99078-129.99071-129.99033-101.62427
  Beta  occ. eigenvalues --  -22.43217 -19.28534 -19.28514 -19.28457 -19.28443
  Beta  occ. eigenvalues --  -19.28401 -19.28384 -19.28370 -19.28358 -19.28347
  Beta  occ. eigenvalues --  -19.28278 -19.28247 -19.28169 -19.26956 -19.26940
  Beta  occ. eigenvalues --  -19.26931 -19.26879 -19.26876 -19.26868 -19.26856
  Beta  occ. eigenvalues --  -19.26853 -19.26836 -19.26833 -19.26823 -19.26817
  Beta  occ. eigenvalues --  -19.26809 -19.26805 -19.26802 -19.26798 -19.26792
  Beta  occ. eigenvalues --  -19.26773 -19.26772 -19.26767 -19.26756 -19.26721
  Beta  occ. eigenvalues --  -19.26670 -19.26644 -19.24717 -19.24686 -19.24655
  Beta  occ. eigenvalues --  -19.24630 -18.93708 -18.91547 -18.91425 -13.36486
  Beta  occ. eigenvalues --  -13.36471 -13.36438 -10.69413 -10.69409 -10.69408
  Beta  occ. eigenvalues --  -10.69400 -10.69396 -10.69390 -10.69366 -10.69362
  Beta  occ. eigenvalues --  -10.69360 -10.33345 -10.32372 -10.31956 -10.31150
  Beta  occ. eigenvalues --  -10.31146 -10.31109 -10.30532 -10.30477  -9.52885
  Beta  occ. eigenvalues --   -7.28721  -7.27288  -7.27284  -3.21111  -3.21095
  Beta  occ. eigenvalues --   -3.21069  -3.21043  -3.21029  -3.21015  -3.21003
  Beta  occ. eigenvalues --   -3.20999  -3.20995  -3.20862  -3.20853  -3.20828
  Beta  occ. eigenvalues --   -2.74720  -1.85347  -1.85288  -1.85278  -1.85246
  Beta  occ. eigenvalues --   -1.85145  -1.85076  -1.85060  -1.85038  -1.85021
  Beta  occ. eigenvalues --   -1.85013  -1.84997  -1.84943  -1.84394  -1.84282
  Beta  occ. eigenvalues --   -1.84270  -1.84252  -1.84220  -1.84207  -1.84151
  Beta  occ. eigenvalues --   -1.84135  -1.84106  -1.84099  -1.84068  -1.84059
  Beta  occ. eigenvalues --   -1.83959  -1.83918  -1.83884  -1.83879  -1.83862
  Beta  occ. eigenvalues --   -1.83829  -1.83804  -1.83794  -1.83786  -1.83692
  Beta  occ. eigenvalues --   -1.83681  -1.83672  -1.80607  -1.75983  -1.75717
  Beta  occ. eigenvalues --   -1.50191  -1.50181  -1.50148  -1.08608  -1.06983
  Beta  occ. eigenvalues --   -1.06941  -1.06896  -1.06018  -1.06006  -1.05984
  Beta  occ. eigenvalues --   -1.04589  -1.04578  -1.04569  -1.03983  -1.03977
  Beta  occ. eigenvalues --   -1.03641  -1.03339  -1.03299  -1.03287  -1.03043
  Beta  occ. eigenvalues --   -1.03016  -1.02251  -1.02215  -1.02210  -1.02101
  Beta  occ. eigenvalues --   -1.02020  -1.01985  -1.01913  -1.01893  -1.01786
  Beta  occ. eigenvalues --   -1.01771  -1.01753  -1.01619  -1.01583  -1.01563
  Beta  occ. eigenvalues --   -1.01315  -1.00790  -1.00767  -1.00719  -1.00714
  Beta  occ. eigenvalues --   -0.99862  -0.99807  -0.99761  -0.96465  -0.90026
  Beta  occ. eigenvalues --   -0.85634  -0.85632  -0.85602  -0.85487  -0.85479
  Beta  occ. eigenvalues --   -0.85478  -0.85445  -0.85444  -0.85430  -0.84591
  Beta  occ. eigenvalues --   -0.84372  -0.82709  -0.72219  -0.69770  -0.65361
  Beta  occ. eigenvalues --   -0.62333  -0.61723  -0.61659  -0.61633  -0.60865
  Beta  occ. eigenvalues --   -0.58981  -0.58962  -0.58949  -0.58806  -0.58785
  Beta  occ. eigenvalues --   -0.58751  -0.58743  -0.58690  -0.58558  -0.57345
  Beta  occ. eigenvalues --   -0.57194  -0.57142  -0.57037  -0.56934  -0.56506
  Beta  occ. eigenvalues --   -0.56426  -0.56382  -0.55829  -0.55618  -0.55347
  Beta  occ. eigenvalues --   -0.55337  -0.55322  -0.54645  -0.54171  -0.54141
  Beta  occ. eigenvalues --   -0.53976  -0.53668  -0.53624  -0.53589  -0.52848
  Beta  occ. eigenvalues --   -0.52665  -0.52600  -0.52485  -0.52461  -0.51479
  Beta  occ. eigenvalues --   -0.51458  -0.51449  -0.51326  -0.51262  -0.51022
  Beta  occ. eigenvalues --   -0.50572  -0.50478  -0.50472  -0.50344  -0.50249
  Beta  occ. eigenvalues --   -0.50181  -0.50051  -0.50040  -0.49981  -0.49713
  Beta  occ. eigenvalues --   -0.49649  -0.49604  -0.49506  -0.49488  -0.49291
  Beta  occ. eigenvalues --   -0.49227  -0.49204  -0.49101  -0.49066  -0.48983
  Beta  occ. eigenvalues --   -0.48719  -0.48559  -0.48540  -0.48473  -0.47885
  Beta  occ. eigenvalues --   -0.47649  -0.47605  -0.46063  -0.45910  -0.45879
  Beta  occ. eigenvalues --   -0.45816  -0.45678  -0.45577  -0.45228  -0.45170
  Beta  occ. eigenvalues --   -0.45154  -0.45057  -0.44821  -0.44622  -0.44474
  Beta  occ. eigenvalues --   -0.44441  -0.44433  -0.44281  -0.44221  -0.44196
  Beta  occ. eigenvalues --   -0.43438  -0.43260  -0.42508  -0.42468  -0.42424
  Beta  occ. eigenvalues --   -0.42308  -0.42254  -0.42141  -0.42130  -0.41636
  Beta  occ. eigenvalues --   -0.41611  -0.41568  -0.41424  -0.41049  -0.40958
  Beta  occ. eigenvalues --   -0.40766  -0.40724  -0.40696  -0.40390  -0.40376
  Beta  occ. eigenvalues --   -0.40336  -0.40177  -0.40165  -0.40151  -0.39819
  Beta  occ. eigenvalues --   -0.39642  -0.39363  -0.39177  -0.39104  -0.39101
  Beta  occ. eigenvalues --   -0.38914  -0.38873  -0.38824  -0.38743  -0.38704
  Beta  occ. eigenvalues --   -0.38659  -0.38317  -0.38292  -0.38255  -0.37616
  Beta  occ. eigenvalues --   -0.37220  -0.37189  -0.35601  -0.35557  -0.33979
  Beta  occ. eigenvalues --   -0.30872
  Beta virt. eigenvalues --   -0.06324  -0.06271  -0.04828  -0.04793  -0.04707
  Beta virt. eigenvalues --   -0.01520  -0.01410  -0.01365  -0.01126  -0.00923
  Beta virt. eigenvalues --   -0.00905  -0.00868  -0.00154  -0.00082  -0.00046

 Mulliken charges and spin densities:
               1          2
     1  Cl  -0.354353  -0.600486
     2  C   -0.035709  -0.098673
     3  C    0.011985   0.059716
     4  C   -0.035027  -0.094370
     5  C   -0.031705   0.060073
     6  C    0.008849  -0.118535
     7  C   -0.047470   0.060298
     8  H    0.050622   0.004275
     9  H    0.051023   0.004045
    10  H    0.056172  -0.002146
    11  H    0.057393   0.005200
    12  H    0.054505  -0.002116
    13  C    0.006833  -0.269004
    14  C   -0.040807  -0.016807
    15  H    0.076952   0.010996
    16  H    0.094796   0.000993
    17  H    0.089177  -0.001887
    18  O   -0.672105  -0.000566
    19  O   -0.670756  -0.000527
    20  O   -0.666216  -0.001564
    21  O   -0.672679  -0.000542
    22  W    1.715687   0.000355
    23  W    1.660309   0.000482
    24  W    1.672415   0.000163
    25  W    1.681317   0.000220
    26  W    1.662585   0.002710
    27  W    1.709453   0.002441
    28  W    1.609710   0.003329
    29  W    1.671861   0.002788
    30  O   -0.350055  -0.000525
    31  O   -0.394180  -0.000570
    32  O   -0.395973  -0.000614
    33  O   -0.387809  -0.000569
    34  O   -0.671500  -0.000281
    35  O   -0.677968  -0.000016
    36  O   -0.669954  -0.000122
    37  O   -0.672320  -0.000185
    38  O   -0.397450   0.002129
    39  O   -0.395104   0.002171
    40  O   -0.340844   0.000342
    41  O   -0.394985   0.002148
    42  O   -0.677582   0.000039
    43  O   -0.672314   0.000142
    44  O   -0.668023   0.000260
    45  O   -0.674147   0.000088
    46  O   -0.397453   0.002269
    47  O   -0.352028   0.002134
    48  O   -0.394032   0.001783
    49  O   -0.392667   0.002286
    50  W    1.658533   0.002835
    51  W    1.664566   0.002732
    52  W    1.676966   0.003953
    53  W    1.670360   0.002684
    54  O   -0.723523   0.000103
    55  O   -0.705600   0.000010
    56  O   -0.722299   0.000146
    57  O   -0.721331   0.000071
    58  O   -0.702930   0.000076
    59  O   -0.723531   0.000158
    60  O   -0.723115   0.000212
    61  O   -0.718008   0.000200
    62  O   -0.723258  -0.000183
    63  O   -0.705541  -0.000057
    64  O   -0.724930  -0.000198
    65  O   -0.724215  -0.000201
    66  O   -0.883858   0.005299
    67  O   -0.883940   0.007305
    68  O   -0.881246   0.007217
    69  O   -0.889062   0.006519
    70  K    0.850429   0.000193
    71  K    0.848348   0.000219
    72  K    0.847330   0.000216
    73  V    1.201427   0.936723
 Sum of Mulliken charges =  -1.00000   0.00000

 Dipole moment (field-independent basis, Debye):
    X=             27.9301    Y=            -13.7418    Z=            -30.7675  Tot=             43.7671
 Quadrupole moment (field-independent basis, Debye-Ang):
   XX=           -757.6866   YY=           -711.7254   ZZ=           -783.2091
   XY=            126.8741   XZ=            172.8236   YZ=            -93.4122

 Normal termination of Gaussian 16 at Mon Jun  3 01:14:12 2024.
