 Gaussian 16, Revision C.01,
 Gaussian 16:  ES64L-G16RevC.01  3-Jul-2019

 ----------------------------------------------------------------------
 # def2svp wb97xd scrf=(smd,solvent=acetonitrile) g09default scf=(xqc,m
 axcycle=64) force guess=read nosymm
 ----------------------------------------------------------------------

 ----------
 Title Card
 ----------
 Symbolic Z-matrix:
 Charge = -1 Multiplicity = 1

                          Input orientation:
 ---------------------------------------------------------------------
 Center     Atomic      Atomic             Coordinates (Angstroms)
 Number     Number       Type             X           Y           Z
 ---------------------------------------------------------------------
      1         17           0       -9.654203    8.269110   10.535277
      2          6           0       -8.367983    4.272765   12.204597
      3          6           0       -9.165977    3.946107   11.091770
      4          6           0      -10.078597    2.882741   11.219306
      5          6           0      -10.208326    2.188135   12.417612
      6          6           0       -9.415130    2.529766   13.514045
      7          6           0       -8.491990    3.571748   13.399789
      8          1           0       -7.643225    5.087203   12.139493
      9          1           0      -10.703810    2.615180   10.362698
     10          1           0      -10.935597    1.376725   12.498758
     11          1           0       -9.506836    1.978912   14.452454
     12          1           0       -7.868943    3.847021   14.254463
     13          6           0       -9.116230    4.693213    9.834242
     14          6           0       -8.435097    5.839181    9.625571
     15          1           0       -9.721211    4.280752    9.018696
     16          1           0       -8.467724    6.342529    8.659057
     17          1           0       -7.778239    6.273814   10.378727
     18          8           0       -0.975461   -1.814342    7.458707
     19          8           0       -8.378555   -1.326784    7.462066
     20          8           0       -7.010967    1.338752   10.482041
     21          8           0       -2.332173   -4.397834   10.555024
     22         74           0       -3.385722    0.705381    6.494989
     23         74           0       -5.991566   -3.835758    6.565482
     24         74           0       -3.593204    0.875797   11.403450
     25         74           0       -5.766866   -3.881674   11.476128
     26         74           0       -2.439216   -2.588176    6.387019
     27         74           0       -6.916188   -0.541864    6.356256
     28         74           0       -6.795794   -0.260540   11.578172
     29         74           0       -2.551165   -2.743302   11.614871
     30          8           0       -3.146985    1.896474    5.323325
     31          8           0       -6.129418   -5.085070    5.422512
     32          8           0       -2.666335    1.714861   12.554654
     33          8           0       -6.681634   -4.689369   12.656883
     34          8           0       -2.661714   -0.912573    5.587835
     35          8           0       -6.694389   -2.276012    5.620697
     36          8           0       -5.285951    0.543485   12.359140
     37          8           0       -4.053102   -3.541530   12.408959
     38          8           0        0.332404   -0.049385    9.272457
     39          8           0       -9.692155   -3.026242    9.318809
     40          8           0       -6.360235    3.419626    8.670232
     41          8           0       -2.996377   -6.495572    8.745496
     42          8           0       -1.765136    0.735906    7.477319
     43          8           0       -7.597179   -3.882595    7.545365
     44          8           0       -4.481876    2.193960   10.423478
     45          8           0       -4.869199   -5.238878   10.525170
     46          8           0       -1.610557   -3.523052    5.234174
     47          8           0       -7.792237    0.264249    5.159405
     48          8           0       -8.011299   -0.161166   12.759683
     49          8           0       -1.321936   -2.867143   12.781192
     50         74           0       -1.229681   -0.561290    8.839694
     51         74           0       -8.130032   -2.526424    8.873564
     52         74           0       -5.880426    1.848560    9.046291
     53         74           0       -3.482465   -4.920922    9.160823
     54          8           0       -4.216098   -3.121165    6.068757
     55          8           0       -5.136960   -0.057449    6.018065
     56          8           0       -6.165902   -2.011796   11.920299
     57          8           0       -3.162469   -0.993084   11.914876
     58          8           0       -4.343390    1.580506    7.842954
     59          8           0       -5.007509   -4.696914    7.922418
     60          8           0       -2.300104    0.558901   10.074581
     61          8           0       -7.048116   -3.619802   10.132785
     62          8           0       -2.572667   -3.913939    7.860377
     63          8           0       -6.800029    0.789200    7.800894
     64          8           0       -7.814454   -1.180217   10.151192
     65          8           0       -1.542221   -1.883322   10.145862
     66          8           0       -3.347903   -1.164174    8.014572
     67          8           0       -6.007281   -1.966910    8.034237
     68          8           0       -5.103660   -0.214959    9.942729
     69          8           0       -4.236536   -2.853451    9.975974
     70         19           0       -3.219238   -6.140010    5.648634
     71         19           0       -0.127467    0.010945   12.316959
     72         19           0       -9.286933   -2.818957   12.411875
     73         23           0       -4.675928   -1.546272    8.989925
 ---------------------------------------------------------------------

 SCF Done:  E(RwB97XD) =  -7327.70206999     A.U. after   12 cycles

 Alpha  occ. eigenvalues -- -197.29349-130.00106-130.00024-130.00011-101.48389
 Alpha  occ. eigenvalues --  -22.62483 -19.33607 -19.33604 -19.33601 -19.33574
 Alpha  occ. eigenvalues --  -19.30733 -19.30698 -19.30697 -19.30689 -19.30676
 Alpha  occ. eigenvalues --  -19.30672 -19.30666 -19.30643 -19.30582 -19.30370
 Alpha  occ. eigenvalues --  -19.30350 -19.30173 -19.29341 -19.29338 -19.29314
 Alpha  occ. eigenvalues --  -19.29310 -19.29299 -19.29285 -19.29276 -19.29251
 Alpha  occ. eigenvalues --  -19.29222 -19.29192 -19.29190 -19.29167 -19.29166
 Alpha  occ. eigenvalues --  -19.29133 -19.29114 -19.29105 -19.29105 -19.29092
 Alpha  occ. eigenvalues --  -19.29086 -19.29061 -19.29018 -19.28985 -19.28971
 Alpha  occ. eigenvalues --  -19.28881 -19.11438 -19.11431 -19.11422 -13.37508
 Alpha  occ. eigenvalues --  -13.37423 -13.37405 -10.70438 -10.70431 -10.70430
 Alpha  occ. eigenvalues --  -10.70353 -10.70346 -10.70344 -10.70336 -10.70329
 Alpha  occ. eigenvalues --  -10.70324 -10.29829 -10.29316 -10.29279 -10.29028
 Alpha  occ. eigenvalues --  -10.28938 -10.28917 -10.28096 -10.27418  -9.38865
 Alpha  occ. eigenvalues --   -7.13693  -7.13640  -7.13634  -3.23318  -3.23317
 Alpha  occ. eigenvalues --   -3.23299  -3.23293  -3.23292  -3.23257  -3.23253
 Alpha  occ. eigenvalues --   -3.23249  -3.23226  -3.22969  -3.22950  -3.22770
 Alpha  occ. eigenvalues --   -2.91754  -1.94142  -1.94112  -1.94100  -1.87720
 Alpha  occ. eigenvalues --   -1.87675  -1.87660  -1.87626  -1.87493  -1.87473
 Alpha  occ. eigenvalues --   -1.87469  -1.87452  -1.87430  -1.87274  -1.87245
 Alpha  occ. eigenvalues --   -1.87092  -1.86631  -1.86513  -1.86503  -1.86485
 Alpha  occ. eigenvalues --   -1.86458  -1.86435  -1.86349  -1.86330  -1.86316
 Alpha  occ. eigenvalues --   -1.86300  -1.86287  -1.86264  -1.86147  -1.86138
 Alpha  occ. eigenvalues --   -1.86124  -1.86113  -1.86042  -1.86026  -1.85992
 Alpha  occ. eigenvalues --   -1.85921  -1.85902  -1.85803  -1.85715  -1.85663
 Alpha  occ. eigenvalues --   -1.51198  -1.51119  -1.51100  -1.13032  -1.11259
 Alpha  occ. eigenvalues --   -1.11174  -1.11173  -1.08967  -1.08535  -1.08498
 Alpha  occ. eigenvalues --   -1.08324  -1.07563  -1.07496  -1.07491  -1.06907
 Alpha  occ. eigenvalues --   -1.06895  -1.06877  -1.06320  -1.06295  -1.05340
 Alpha  occ. eigenvalues --   -1.05332  -1.04986  -1.04980  -1.04964  -1.04215
 Alpha  occ. eigenvalues --   -1.04210  -1.04186  -1.04043  -1.04015  -1.04005
 Alpha  occ. eigenvalues --   -1.03948  -1.03927  -1.03901  -1.03769  -1.03754
 Alpha  occ. eigenvalues --   -1.03624  -1.03568  -1.03308  -1.03274  -1.03137
 Alpha  occ. eigenvalues --   -1.03127  -1.03056  -1.02979  -0.94353  -0.86666
 Alpha  occ. eigenvalues --   -0.86597  -0.86576  -0.86489  -0.86474  -0.86473
 Alpha  occ. eigenvalues --   -0.86402  -0.86390  -0.86390  -0.86355  -0.82798
 Alpha  occ. eigenvalues --   -0.79703  -0.71647  -0.69639  -0.67974  -0.64610
 Alpha  occ. eigenvalues --   -0.63983  -0.63912  -0.63892  -0.63292  -0.63272
 Alpha  occ. eigenvalues --   -0.63159  -0.62912  -0.62663  -0.62600  -0.61966
 Alpha  occ. eigenvalues --   -0.61611  -0.61591  -0.61500  -0.61253  -0.61236
 Alpha  occ. eigenvalues --   -0.61185  -0.60419  -0.59477  -0.59451  -0.59443
 Alpha  occ. eigenvalues --   -0.59403  -0.59364  -0.58600  -0.58008  -0.57972
 Alpha  occ. eigenvalues --   -0.57892  -0.57054  -0.57027  -0.56999  -0.56289
 Alpha  occ. eigenvalues --   -0.56268  -0.56114  -0.55710  -0.54872  -0.54815
 Alpha  occ. eigenvalues --   -0.54769  -0.54511  -0.54241  -0.54114  -0.54105
 Alpha  occ. eigenvalues --   -0.54033  -0.53963  -0.53259  -0.53225  -0.53089
 Alpha  occ. eigenvalues --   -0.53050  -0.52911  -0.52732  -0.52700  -0.52653
 Alpha  occ. eigenvalues --   -0.52625  -0.52513  -0.52466  -0.52391  -0.51623
 Alpha  occ. eigenvalues --   -0.51609  -0.51355  -0.51328  -0.51292  -0.51247
 Alpha  occ. eigenvalues --   -0.51188  -0.51169  -0.50943  -0.50790  -0.50617
 Alpha  occ. eigenvalues --   -0.50595  -0.50588  -0.49919  -0.49901  -0.49303
 Alpha  occ. eigenvalues --   -0.49272  -0.49232  -0.49218  -0.49167  -0.49088
 Alpha  occ. eigenvalues --   -0.48902  -0.48082  -0.48034  -0.47922  -0.47627
 Alpha  occ. eigenvalues --   -0.47395  -0.47296  -0.47253  -0.47008  -0.46968
 Alpha  occ. eigenvalues --   -0.46864  -0.46573  -0.46561  -0.46502  -0.46203
 Alpha  occ. eigenvalues --   -0.46153  -0.46112  -0.45613  -0.45110  -0.44931
 Alpha  occ. eigenvalues --   -0.44892  -0.44210  -0.44153  -0.44041  -0.43494
 Alpha  occ. eigenvalues --   -0.43308  -0.43260  -0.43135  -0.43123  -0.43089
 Alpha  occ. eigenvalues --   -0.42740  -0.42718  -0.42684  -0.42609  -0.42598
 Alpha  occ. eigenvalues --   -0.42520  -0.42487  -0.42471  -0.42306  -0.42294
 Alpha  occ. eigenvalues --   -0.42273  -0.42042  -0.41921  -0.41874  -0.41860
 Alpha  occ. eigenvalues --   -0.41215  -0.41196  -0.41138  -0.41062  -0.40572
 Alpha  occ. eigenvalues --   -0.40555  -0.40545  -0.40366  -0.39453  -0.39445
 Alpha  occ. eigenvalues --   -0.37002  -0.32549  -0.29204  -0.25161  -0.25132
 Alpha  occ. eigenvalues --   -0.23491
 Alpha virt. eigenvalues --   -0.09386  -0.09180  -0.08438  -0.08386  -0.06970
 Alpha virt. eigenvalues --   -0.06952  -0.06877  -0.04396  -0.04114  -0.04064
 Alpha virt. eigenvalues --   -0.03726  -0.03496  -0.03443  -0.03230  -0.03112

 Mulliken charges:
               1
     1  Cl  -0.892193
     2  C   -0.082043
     3  C    0.049593
     4  C   -0.081004
     5  C   -0.033961
     6  C   -0.033462
     7  C   -0.049284
     8  H    0.029480
     9  H    0.028984
    10  H    0.040855
    11  H    0.036763
    12  H    0.039421
    13  C   -0.127019
    14  C    0.030670
    15  H    0.019965
    16  H    0.035051
    17  H    0.025853
    18  O   -0.663062
    19  O   -0.661666
    20  O   -0.655118
    21  O   -0.663547
    22  W    1.732088
    23  W    1.674147
    24  W    1.684541
    25  W    1.695119
    26  W    1.675914
    27  W    1.727020
    28  W    1.617236
    29  W    1.685811
    30  O   -0.320226
    31  O   -0.365808
    32  O   -0.367310
    33  O   -0.358979
    34  O   -0.662945
    35  O   -0.670440
    36  O   -0.660792
    37  O   -0.663165
    38  O   -0.367368
    39  O   -0.365123
    40  O   -0.297911
    41  O   -0.364813
    42  O   -0.669879
    43  O   -0.663534
    44  O   -0.659188
    45  O   -0.665703
    46  O   -0.367307
    47  O   -0.320348
    48  O   -0.360520
    49  O   -0.362677
    50  W    1.672044
    51  W    1.678577
    52  W    1.683570
    53  W    1.684696
    54  O   -0.725416
    55  O   -0.707178
    56  O   -0.725333
    57  O   -0.723319
    58  O   -0.704846
    59  O   -0.725996
    60  O   -0.725354
    61  O   -0.720113
    62  O   -0.724687
    63  O   -0.706612
    64  O   -0.725748
    65  O   -0.725891
    66  O   -0.801459
    67  O   -0.800735
    68  O   -0.798056
    69  O   -0.809070
    70  K    0.864220
    71  K    0.862031
    72  K    0.861265
    73  V    1.191297
 Sum of Mulliken charges =  -1.00000

 Dipole moment (field-independent basis, Debye):
    X=             50.0973    Y=            -51.1512    Z=            -38.9055  Tot=             81.4851
 Quadrupole moment (field-independent basis, Debye-Ang):
   XX=          -1040.2752   YY=           -887.6004   ZZ=           -919.0611
   XY=            445.8631   XZ=            448.5969   YZ=           -476.7429

 Normal termination of Gaussian 16 at Mon Jun  3 02:03:15 2024.
