 Gaussian 16, Revision C.01,
 Gaussian 16:  ES64L-G16RevC.01  3-Jul-2019

 ----------------------------------------------------------------------
 # def2svp wb97xd scrf=(smd,solvent=acetonitrile) g09default scf=(xqc,m
 axcycle=64) force guess=read nosymm
 ----------------------------------------------------------------------

 ----------
 Title Card
 ----------
 Symbolic Z-matrix:
 Charge = -1 Multiplicity = 1

                          Input orientation:
 ---------------------------------------------------------------------
 Center     Atomic      Atomic             Coordinates (Angstroms)
 Number     Number       Type             X           Y           Z
 ---------------------------------------------------------------------
      1         17           0       -9.654203    8.269110   10.535277
      2          6           0       -8.367983    4.272765   12.204597
      3          6           0       -9.165977    3.946107   11.091770
      4          6           0      -10.078597    2.882741   11.219306
      5          6           0      -10.208326    2.188135   12.417612
      6          6           0       -9.415130    2.529766   13.514045
      7          6           0       -8.491990    3.571748   13.399789
      8          1           0       -7.643225    5.087203   12.139493
      9          1           0      -10.703810    2.615180   10.362698
     10          1           0      -10.935597    1.376725   12.498758
     11          1           0       -9.506836    1.978912   14.452454
     12          1           0       -7.868943    3.847021   14.254463
     13          6           0       -9.116230    4.693213    9.834242
     14          6           0       -8.435097    5.839181    9.625571
     15          1           0       -9.721211    4.280752    9.018696
     16          1           0       -8.467724    6.342529    8.659057
     17          1           0       -7.778239    6.273814   10.378727
     18          8           0       -0.975461   -1.814342    7.458707
     19          8           0       -8.378555   -1.326784    7.462066
     20          8           0       -7.010967    1.338752   10.482041
     21          8           0       -2.332173   -4.397834   10.555024
     22         74           0       -3.385722    0.705381    6.494989
     23         74           0       -5.991566   -3.835758    6.565482
     24         74           0       -3.593204    0.875797   11.403450
     25         74           0       -5.766866   -3.881674   11.476128
     26         74           0       -2.439216   -2.588176    6.387019
     27         74           0       -6.916188   -0.541864    6.356256
     28         74           0       -6.795794   -0.260540   11.578172
     29         74           0       -2.551165   -2.743302   11.614871
     30          8           0       -3.146985    1.896474    5.323325
     31          8           0       -6.129418   -5.085070    5.422512
     32          8           0       -2.666335    1.714861   12.554654
     33          8           0       -6.681634   -4.689369   12.656883
     34          8           0       -2.661714   -0.912573    5.587835
     35          8           0       -6.694389   -2.276012    5.620697
     36          8           0       -5.285951    0.543485   12.359140
     37          8           0       -4.053102   -3.541530   12.408959
     38          8           0        0.332404   -0.049385    9.272457
     39          8           0       -9.692155   -3.026242    9.318809
     40          8           0       -6.360235    3.419626    8.670232
     41          8           0       -2.996377   -6.495572    8.745496
     42          8           0       -1.765136    0.735906    7.477319
     43          8           0       -7.597179   -3.882595    7.545365
     44          8           0       -4.481876    2.193960   10.423478
     45          8           0       -4.869199   -5.238878   10.525170
     46          8           0       -1.610557   -3.523052    5.234174
     47          8           0       -7.792237    0.264249    5.159405
     48          8           0       -8.011299   -0.161166   12.759683
     49          8           0       -1.321936   -2.867143   12.781192
     50         74           0       -1.229681   -0.561290    8.839694
     51         74           0       -8.130032   -2.526424    8.873564
     52         74           0       -5.880426    1.848560    9.046291
     53         74           0       -3.482465   -4.920922    9.160823
     54          8           0       -4.216098   -3.121165    6.068757
     55          8           0       -5.136960   -0.057449    6.018065
     56          8           0       -6.165902   -2.011796   11.920299
     57          8           0       -3.162469   -0.993084   11.914876
     58          8           0       -4.343390    1.580506    7.842954
     59          8           0       -5.007509   -4.696914    7.922418
     60          8           0       -2.300104    0.558901   10.074581
     61          8           0       -7.048116   -3.619802   10.132785
     62          8           0       -2.572667   -3.913939    7.860377
     63          8           0       -6.800029    0.789200    7.800894
     64          8           0       -7.814454   -1.180217   10.151192
     65          8           0       -1.542221   -1.883322   10.145862
     66          8           0       -3.347903   -1.164174    8.014572
     67          8           0       -6.007281   -1.966910    8.034237
     68          8           0       -5.103660   -0.214959    9.942729
     69          8           0       -4.236536   -2.853451    9.975974
     70         19           0       -3.219238   -6.140010    5.648634
     71         19           0       -0.127467    0.010945   12.316959
     72         19           0       -9.286933   -2.818957   12.411875
     73         23           0       -4.675928   -1.546272    8.989925
 ---------------------------------------------------------------------

 SCF Done:  E(UwB97XD) =  -7327.70204261     A.U. after   38 cycles

 Alpha  occ. eigenvalues --  -19.24657 -18.94044 -18.92970 -18.92906 -13.36489
 Alpha  occ. eigenvalues --  -13.36474 -13.36432 -10.69416 -10.69412 -10.69411
 Alpha  occ. eigenvalues --  -10.69402 -10.69398 -10.69393 -10.69359 -10.69355
 Alpha  occ. eigenvalues --  -10.69353 -10.33064 -10.32268 -10.32013 -10.31041
 Alpha  occ. eigenvalues --  -10.31024 -10.31011 -10.30592 -10.30540  -9.52428
 Alpha  occ. eigenvalues --   -7.27311  -7.26972  -7.26969  -3.21109  -3.21099
 Alpha  occ. eigenvalues --   -3.21070  -3.21046  -3.21029  -3.21020  -3.21008
 Alpha  occ. eigenvalues --   -3.21003  -3.21000  -3.20860  -3.20855  -3.20832
 Alpha  occ. eigenvalues --   -2.78775  -1.85352  -1.85292  -1.85283  -1.85254
 Alpha  occ. eigenvalues --   -1.85149  -1.85080  -1.85063  -1.85044  -1.85029
 Alpha  occ. eigenvalues --   -1.85022  -1.85001  -1.84951  -1.84396  -1.84283
 Alpha  occ. eigenvalues --   -1.84274  -1.84254  -1.84222  -1.84209  -1.84153
 Alpha  occ. eigenvalues --   -1.84136  -1.84109  -1.84101  -1.84070  -1.84061
 Alpha  occ. eigenvalues --   -1.83960  -1.83920  -1.83886  -1.83882  -1.83864
 Alpha  occ. eigenvalues --   -1.83831  -1.83805  -1.83795  -1.83788  -1.83693
 Alpha  occ. eigenvalues --   -1.83684  -1.83673  -1.81940  -1.81609  -1.81574
 Alpha  occ. eigenvalues --   -1.50193  -1.50183  -1.50142  -1.08624  -1.07003
 Alpha  occ. eigenvalues --   -1.06960  -1.06921  -1.06018  -1.06007  -1.05985
 Alpha  occ. eigenvalues --   -1.04587  -1.04577  -1.04570  -1.03980  -1.03975
 Alpha  occ. eigenvalues --   -1.03706  -1.03370  -1.03337  -1.03317  -1.03046
 Alpha  occ. eigenvalues --   -1.03027  -1.02268  -1.02236  -1.02230  -1.02110
 Alpha  occ. eigenvalues --   -1.02025  -1.02001  -1.01918  -1.01908  -1.01793
 Alpha  occ. eigenvalues --   -1.01774  -1.01757  -1.01624  -1.01585  -1.01578
 Alpha  occ. eigenvalues --   -1.01316  -1.00822  -1.00779  -1.00723  -1.00718
 Alpha  occ. eigenvalues --   -0.99998  -0.99943  -0.99881  -0.96233  -0.89347
 Alpha  occ. eigenvalues --   -0.85636  -0.85634  -0.85596  -0.85489  -0.85481
 Alpha  occ. eigenvalues --   -0.85481  -0.85446  -0.85439  -0.85424  -0.84312
 Alpha  occ. eigenvalues --   -0.82508  -0.80959  -0.71960  -0.69647  -0.65110
 Alpha  occ. eigenvalues --   -0.62331  -0.61720  -0.61658  -0.61632  -0.60655
 Alpha  occ. eigenvalues --   -0.58985  -0.58963  -0.58950  -0.58895  -0.58821
 Alpha  occ. eigenvalues --   -0.58784  -0.58756  -0.58719  -0.58556  -0.57376
 Alpha  occ. eigenvalues --   -0.57335  -0.57306  -0.57021  -0.56813  -0.56503
 Alpha  occ. eigenvalues --   -0.56456  -0.56418  -0.56022  -0.55871  -0.55368
 Alpha  occ. eigenvalues --   -0.55358  -0.55319  -0.54436  -0.54181  -0.54153
 Alpha  occ. eigenvalues --   -0.53992  -0.53696  -0.53640  -0.53633  -0.52782
 Alpha  occ. eigenvalues --   -0.52663  -0.52614  -0.52504  -0.52465  -0.51492
 Alpha  occ. eigenvalues --   -0.51486  -0.51468  -0.51386  -0.51327  -0.50821
 Alpha  occ. eigenvalues --   -0.50577  -0.50541  -0.50491  -0.50412  -0.50346
 Alpha  occ. eigenvalues --   -0.50286  -0.50085  -0.50043  -0.50018  -0.49768
 Alpha  occ. eigenvalues --   -0.49674  -0.49641  -0.49516  -0.49499  -0.49294
 Alpha  occ. eigenvalues --   -0.49251  -0.49204  -0.49128  -0.49079  -0.49001
 Alpha  occ. eigenvalues --   -0.48727  -0.48564  -0.48542  -0.48480  -0.47696
 Alpha  occ. eigenvalues --   -0.47675  -0.47209  -0.46486  -0.46051  -0.46032
 Alpha  occ. eigenvalues --   -0.45884  -0.45875  -0.45762  -0.45637  -0.45229
 Alpha  occ. eigenvalues --   -0.45153  -0.45147  -0.44828  -0.44630  -0.44496
 Alpha  occ. eigenvalues --   -0.44485  -0.44459  -0.44297  -0.44251  -0.44231
 Alpha  occ. eigenvalues --   -0.43441  -0.43161  -0.42558  -0.42529  -0.42458
 Alpha  occ. eigenvalues --   -0.42328  -0.42215  -0.42177  -0.42168  -0.41641
 Alpha  occ. eigenvalues --   -0.41627  -0.41586  -0.41045  -0.40998  -0.40792
 Alpha  occ. eigenvalues --   -0.40778  -0.40762  -0.40410  -0.40392  -0.40356
 Alpha  occ. eigenvalues --   -0.40224  -0.40195  -0.40181  -0.40139  -0.39878
 Alpha  occ. eigenvalues --   -0.39363  -0.39274  -0.39244  -0.39153  -0.39055
 Alpha  occ. eigenvalues --   -0.38938  -0.38909  -0.38823  -0.38758  -0.38711
 Alpha  occ. eigenvalues --   -0.38325  -0.38302  -0.38264  -0.38095  -0.37219
 Alpha  occ. eigenvalues --   -0.37196  -0.34666  -0.34628  -0.33692  -0.30473
 Alpha  occ. eigenvalues --   -0.25738
 Alpha virt. eigenvalues --   -0.11966  -0.06312  -0.06258  -0.04819  -0.04783
 Alpha virt. eigenvalues --   -0.04697  -0.01525  -0.01414  -0.01369  -0.01126
 Alpha virt. eigenvalues --   -0.00929  -0.00907  -0.00870  -0.00165  -0.00093

  Beta  occ. eigenvalues -- -197.10779-129.99080-129.99074-129.99027-101.62417
  Beta  occ. eigenvalues --  -22.43207 -19.28534 -19.28515 -19.28455 -19.28444
  Beta  occ. eigenvalues --  -19.28403 -19.28381 -19.28369 -19.28359 -19.28348
  Beta  occ. eigenvalues --  -19.28277 -19.28247 -19.28169 -19.26959 -19.26942
  Beta  occ. eigenvalues --  -19.26932 -19.26883 -19.26880 -19.26874 -19.26858
  Beta  occ. eigenvalues --  -19.26854 -19.26840 -19.26837 -19.26826 -19.26821
  Beta  occ. eigenvalues --  -19.26814 -19.26812 -19.26805 -19.26799 -19.26796
  Beta  occ. eigenvalues --  -19.26775 -19.26774 -19.26773 -19.26761 -19.26723
  Beta  occ. eigenvalues --  -19.26671 -19.26648 -19.24717 -19.24682 -19.24651
  Beta  occ. eigenvalues --  -19.24631 -18.93698 -18.91539 -18.91413 -13.36489
  Beta  occ. eigenvalues --  -13.36474 -13.36432 -10.69416 -10.69412 -10.69411
  Beta  occ. eigenvalues --  -10.69402 -10.69398 -10.69393 -10.69359 -10.69355
  Beta  occ. eigenvalues --  -10.69353 -10.33352 -10.32383 -10.31960 -10.31152
  Beta  occ. eigenvalues --  -10.31146 -10.31114 -10.30532 -10.30480  -9.52874
  Beta  occ. eigenvalues --   -7.28710  -7.27277  -7.27274  -3.21108  -3.21094
  Beta  occ. eigenvalues --   -3.21069  -3.21040  -3.21028  -3.21014  -3.21002
  Beta  occ. eigenvalues --   -3.20997  -3.20994  -3.20860  -3.20850  -3.20827
  Beta  occ. eigenvalues --   -2.74713  -1.85346  -1.85287  -1.85277  -1.85246
  Beta  occ. eigenvalues --   -1.85144  -1.85074  -1.85059  -1.85037  -1.85021
  Beta  occ. eigenvalues --   -1.85013  -1.84996  -1.84943  -1.84393  -1.84281
  Beta  occ. eigenvalues --   -1.84270  -1.84252  -1.84219  -1.84206  -1.84150
  Beta  occ. eigenvalues --   -1.84134  -1.84106  -1.84098  -1.84067  -1.84058
  Beta  occ. eigenvalues --   -1.83957  -1.83917  -1.83884  -1.83879  -1.83861
  Beta  occ. eigenvalues --   -1.83828  -1.83802  -1.83792  -1.83785  -1.83690
  Beta  occ. eigenvalues --   -1.83681  -1.83671  -1.80601  -1.75982  -1.75708
  Beta  occ. eigenvalues --   -1.50193  -1.50183  -1.50142  -1.08607  -1.06981
  Beta  occ. eigenvalues --   -1.06940  -1.06895  -1.06017  -1.06005  -1.05983
  Beta  occ. eigenvalues --   -1.04588  -1.04578  -1.04569  -1.03980  -1.03975
  Beta  occ. eigenvalues --   -1.03639  -1.03337  -1.03298  -1.03285  -1.03044
  Beta  occ. eigenvalues --   -1.03019  -1.02250  -1.02215  -1.02209  -1.02102
  Beta  occ. eigenvalues --   -1.02021  -1.01988  -1.01912  -1.01894  -1.01788
  Beta  occ. eigenvalues --   -1.01772  -1.01753  -1.01619  -1.01583  -1.01563
  Beta  occ. eigenvalues --   -1.01316  -1.00792  -1.00768  -1.00722  -1.00718
  Beta  occ. eigenvalues --   -0.99861  -0.99803  -0.99760  -0.96468  -0.90032
  Beta  occ. eigenvalues --   -0.85636  -0.85634  -0.85596  -0.85489  -0.85481
  Beta  occ. eigenvalues --   -0.85481  -0.85446  -0.85439  -0.85424  -0.84583
  Beta  occ. eigenvalues --   -0.84372  -0.82709  -0.72223  -0.69772  -0.65365
  Beta  occ. eigenvalues --   -0.62330  -0.61720  -0.61658  -0.61631  -0.60871
  Beta  occ. eigenvalues --   -0.58981  -0.58961  -0.58950  -0.58805  -0.58781
  Beta  occ. eigenvalues --   -0.58748  -0.58740  -0.58689  -0.58557  -0.57343
  Beta  occ. eigenvalues --   -0.57191  -0.57138  -0.57039  -0.56932  -0.56505
  Beta  occ. eigenvalues --   -0.56425  -0.56381  -0.55827  -0.55616  -0.55347
  Beta  occ. eigenvalues --   -0.55337  -0.55322  -0.54643  -0.54173  -0.54143
  Beta  occ. eigenvalues --   -0.53980  -0.53664  -0.53620  -0.53584  -0.52851
  Beta  occ. eigenvalues --   -0.52665  -0.52600  -0.52484  -0.52460  -0.51480
  Beta  occ. eigenvalues --   -0.51458  -0.51449  -0.51326  -0.51263  -0.51024
  Beta  occ. eigenvalues --   -0.50572  -0.50478  -0.50472  -0.50344  -0.50249
  Beta  occ. eigenvalues --   -0.50182  -0.50053  -0.50042  -0.49984  -0.49716
  Beta  occ. eigenvalues --   -0.49652  -0.49607  -0.49506  -0.49489  -0.49293
  Beta  occ. eigenvalues --   -0.49229  -0.49203  -0.49097  -0.49062  -0.48978
  Beta  occ. eigenvalues --   -0.48720  -0.48561  -0.48541  -0.48473  -0.47892
  Beta  occ. eigenvalues --   -0.47655  -0.47610  -0.46065  -0.45910  -0.45879
  Beta  occ. eigenvalues --   -0.45816  -0.45679  -0.45578  -0.45228  -0.45170
  Beta  occ. eigenvalues --   -0.45153  -0.45058  -0.44827  -0.44629  -0.44475
  Beta  occ. eigenvalues --   -0.44446  -0.44435  -0.44282  -0.44225  -0.44199
  Beta  occ. eigenvalues --   -0.43435  -0.43267  -0.42510  -0.42469  -0.42426
  Beta  occ. eigenvalues --   -0.42306  -0.42254  -0.42140  -0.42130  -0.41637
  Beta  occ. eigenvalues --   -0.41612  -0.41566  -0.41427  -0.41050  -0.40960
  Beta  occ. eigenvalues --   -0.40767  -0.40727  -0.40699  -0.40395  -0.40381
  Beta  occ. eigenvalues --   -0.40341  -0.40179  -0.40167  -0.40153  -0.39821
  Beta  occ. eigenvalues --   -0.39645  -0.39362  -0.39178  -0.39107  -0.39104
  Beta  occ. eigenvalues --   -0.38918  -0.38878  -0.38827  -0.38743  -0.38705
  Beta  occ. eigenvalues --   -0.38661  -0.38319  -0.38296  -0.38259  -0.37613
  Beta  occ. eigenvalues --   -0.37220  -0.37190  -0.35593  -0.35549  -0.33982
  Beta  occ. eigenvalues --   -0.30871
  Beta virt. eigenvalues --   -0.06311  -0.06258  -0.04818  -0.04782  -0.04696
  Beta virt. eigenvalues --   -0.01521  -0.01409  -0.01364  -0.01120  -0.00924
  Beta virt. eigenvalues --   -0.00902  -0.00865  -0.00155  -0.00081  -0.00046

 Mulliken charges and spin densities:
               1          2
     1  Cl  -0.354825  -0.600089
     2  C   -0.035740  -0.098857
     3  C    0.011878   0.059917
     4  C   -0.035036  -0.094499
     5  C   -0.031780   0.060137
     6  C    0.008977  -0.118696
     7  C   -0.047417   0.060401
     8  H    0.050514   0.004277
     9  H    0.051077   0.004051
    10  H    0.056217  -0.002148
    11  H    0.057440   0.005205
    12  H    0.054484  -0.002119
    13  C    0.006715  -0.269324
    14  C   -0.040279  -0.016868
    15  H    0.076901   0.011006
    16  H    0.094810   0.000981
    17  H    0.089357  -0.001820
    18  O   -0.671971  -0.000565
    19  O   -0.670487  -0.000526
    20  O   -0.666149  -0.001552
    21  O   -0.672537  -0.000542
    22  W    1.715285   0.000353
    23  W    1.659790   0.000481
    24  W    1.671927   0.000162
    25  W    1.680935   0.000220
    26  W    1.662214   0.002711
    27  W    1.709149   0.002443
    28  W    1.609250   0.003327
    29  W    1.671419   0.002791
    30  O   -0.350112  -0.000525
    31  O   -0.394180  -0.000570
    32  O   -0.395811  -0.000614
    33  O   -0.387761  -0.000569
    34  O   -0.671299  -0.000283
    35  O   -0.677834  -0.000017
    36  O   -0.669791  -0.000124
    37  O   -0.672106  -0.000187
    38  O   -0.397273   0.002127
    39  O   -0.395308   0.002172
    40  O   -0.340800   0.000366
    41  O   -0.394936   0.002149
    42  O   -0.677454   0.000041
    43  O   -0.672154   0.000145
    44  O   -0.667801   0.000262
    45  O   -0.674060   0.000090
    46  O   -0.397250   0.002269
    47  O   -0.352039   0.002135
    48  O   -0.393907   0.001781
    49  O   -0.392832   0.002288
    50  W    1.658099   0.002837
    51  W    1.664146   0.002737
    52  W    1.676767   0.003941
    53  W    1.669958   0.002687
    54  O   -0.723327   0.000101
    55  O   -0.705351   0.000009
    56  O   -0.722138   0.000144
    57  O   -0.721160   0.000070
    58  O   -0.702679   0.000077
    59  O   -0.723318   0.000159
    60  O   -0.722946   0.000212
    61  O   -0.717772   0.000201
    62  O   -0.723072  -0.000183
    63  O   -0.705316  -0.000057
    64  O   -0.724830  -0.000197
    65  O   -0.724079  -0.000201
    66  O   -0.883696   0.005296
    67  O   -0.883835   0.007301
    68  O   -0.881105   0.007233
    69  O   -0.888863   0.006531
    70  K    0.850559   0.000193
    71  K    0.848271   0.000219
    72  K    0.847417   0.000216
    73  V    1.200860   0.936678
 Sum of Mulliken charges =  -1.00000  -0.00000

 Dipole moment (field-independent basis, Debye):
    X=             27.9153    Y=            -13.7590    Z=            -30.7866  Tot=             43.7766
 Quadrupole moment (field-independent basis, Debye-Ang):
   XX=           -757.6235   YY=           -711.7329   ZZ=           -783.6259
   XY=            126.9435   XZ=            172.7653   YZ=            -93.5747

 Normal termination of Gaussian 16 at Mon Jun  3 01:51:24 2024.
