 Gaussian 16, Revision C.01,
 Gaussian 16:  ES64L-G16RevC.01  3-Jul-2019

 ----------------------------------------------------------------------
 # def2svp wb97xd scrf=(smd,solvent=acetonitrile) g09default scf=(xqc,m
 axcycle=64) force guess=read nosymm
 ----------------------------------------------------------------------

 ----------
 Title Card
 ----------
 Symbolic Z-matrix:
 Charge = -1 Multiplicity = 1

                          Input orientation:
 ---------------------------------------------------------------------
 Center     Atomic      Atomic             Coordinates (Angstroms)
 Number     Number       Type             X           Y           Z
 ---------------------------------------------------------------------
      1         17           0       -9.658574    8.269991   10.535215
      2          6           0       -8.371235    4.275553   12.203558
      3          6           0       -9.170252    3.948786   11.091502
      4          6           0      -10.082194    2.884894   11.219983
      5          6           0      -10.208561    2.188710   12.417875
      6          6           0       -9.412667    2.529137   13.512750
      7          6           0       -8.491720    3.572978   13.398055
      8          1           0       -7.648612    5.091907   12.138635
      9          1           0      -10.709673    2.617947   10.364847
     10          1           0      -10.935721    1.377331   12.500114
     11          1           0       -9.500742    1.976236   14.450295
     12          1           0       -7.867954    3.849051   14.251962
     13          6           0       -9.121542    4.696974    9.834464
     14          6           0       -8.436439    5.840540    9.625759
     15          1           0       -9.730276    4.287738    9.020050
     16          1           0       -8.469170    6.346072    8.660418
     17          1           0       -7.774793    6.270207   10.377692
     18          8           0       -0.975411   -1.815961    7.457858
     19          8           0       -8.377599   -1.325914    7.461925
     20          8           0       -7.010163    1.337586   10.483242
     21          8           0       -2.331494   -4.397760   10.555022
     22         74           0       -3.383914    0.707060    6.497131
     23         74           0       -5.992190   -3.837701    6.566796
     24         74           0       -3.591119    0.876715   11.401888
     25         74           0       -5.767596   -3.883745   11.474911
     26         74           0       -2.440621   -2.587819    6.384907
     27         74           0       -6.913699   -0.542694    6.354604
     28         74           0       -6.793291   -0.261795   11.580438
     29         74           0       -2.552121   -2.743461   11.616441
     30          8           0       -3.144398    1.899264    5.326726
     31          8           0       -6.130778   -5.086900    5.423896
     32          8           0       -2.664465    1.716083   12.553142
     33          8           0       -6.681638   -4.692441   12.655347
     34          8           0       -2.661639   -0.911855    5.587668
     35          8           0       -6.693587   -2.276878    5.620794
     36          8           0       -5.283649    0.542644   12.359442
     37          8           0       -4.053548   -3.542362   12.408945
     38          8           0        0.334614   -0.053553    9.271810
     39          8           0       -9.692687   -3.023441    9.318344
     40          8           0       -6.362586    3.418404    8.671270
     41          8           0       -2.993832   -6.495461    8.745717
     42          8           0       -1.763620    0.735078    7.478277
     43          8           0       -7.597392   -3.882421    7.546131
     44          8           0       -4.481215    2.193863   10.423305
     45          8           0       -4.868525   -5.239403   10.524154
     46          8           0       -1.612238   -3.522367    5.231566
     47          8           0       -7.789626    0.262960    5.157461
     48          8           0       -8.008359   -0.161399   12.762307
     49          8           0       -1.323164   -2.867787   12.782921
     50         74           0       -1.228042   -0.564577    8.839602
     51         74           0       -8.130293   -2.524282    8.873681
     52         74           0       -5.881845    1.847304    9.046865
     53         74           0       -3.480250   -4.920851    9.160459
     54          8           0       -4.216678   -3.121831    6.068091
     55          8           0       -5.135508   -0.056666    6.017926
     56          8           0       -6.165736   -2.013405   11.921356
     57          8           0       -3.161174   -0.993120   11.915132
     58          8           0       -4.342837    1.580754    7.843995
     59          8           0       -5.006946   -4.698358    7.921999
     60          8           0       -2.298051    0.558248   10.074489
     61          8           0       -7.048914   -3.620292   10.133006
     62          8           0       -2.572534   -3.914360    7.859215
     63          8           0       -6.799400    0.788637    7.800691
     64          8           0       -7.813675   -1.180273   10.152405
     65          8           0       -1.541167   -1.884411   10.146538
     66          8           0       -3.347308   -1.164582    8.014621
     67          8           0       -6.006672   -1.967301    8.034347
     68          8           0       -5.102638   -0.215500    9.942994
     69          8           0       -4.236201   -2.853821    9.975888
     70         19           0       -3.219974   -6.141179    5.648658
     71         19           0       -0.128094    0.006346   12.316423
     72         19           0       -9.287903   -2.818908   12.410036
     73         23           0       -4.675266   -1.546573    8.989904
 ---------------------------------------------------------------------

 SCF Done:  E(RwB97XD) =  -7327.70209753     A.U. after   12 cycles

 Alpha  occ. eigenvalues -- -197.29342-130.00108-130.00018-130.00015-101.48385
 Alpha  occ. eigenvalues --  -22.62477 -19.33608 -19.33603 -19.33599 -19.33576
 Alpha  occ. eigenvalues --  -19.30734 -19.30698 -19.30695 -19.30691 -19.30674
 Alpha  occ. eigenvalues --  -19.30671 -19.30667 -19.30644 -19.30584 -19.30370
 Alpha  occ. eigenvalues --  -19.30351 -19.30170 -19.29345 -19.29342 -19.29320
 Alpha  occ. eigenvalues --  -19.29313 -19.29304 -19.29288 -19.29282 -19.29257
 Alpha  occ. eigenvalues --  -19.29226 -19.29195 -19.29194 -19.29172 -19.29169
 Alpha  occ. eigenvalues --  -19.29137 -19.29117 -19.29107 -19.29105 -19.29098
 Alpha  occ. eigenvalues --  -19.29091 -19.29068 -19.29023 -19.28988 -19.28974
 Alpha  occ. eigenvalues --  -19.28884 -19.11432 -19.11424 -19.11416 -13.37511
 Alpha  occ. eigenvalues --  -13.37417 -13.37409 -10.70440 -10.70433 -10.70432
 Alpha  occ. eigenvalues --  -10.70347 -10.70340 -10.70340 -10.70338 -10.70333
 Alpha  occ. eigenvalues --  -10.70328 -10.29833 -10.29314 -10.29282 -10.29028
 Alpha  occ. eigenvalues --  -10.28942 -10.28913 -10.28107 -10.27418  -9.38860
 Alpha  occ. eigenvalues --   -7.13689  -7.13635  -7.13630  -3.23316  -3.23315
 Alpha  occ. eigenvalues --   -3.23297  -3.23291  -3.23290  -3.23255  -3.23251
 Alpha  occ. eigenvalues --   -3.23247  -3.23226  -3.22968  -3.22949  -3.22769
 Alpha  occ. eigenvalues --   -2.91751  -1.94140  -1.94109  -1.94098  -1.87719
 Alpha  occ. eigenvalues --   -1.87673  -1.87659  -1.87624  -1.87493  -1.87472
 Alpha  occ. eigenvalues --   -1.87469  -1.87452  -1.87429  -1.87274  -1.87245
 Alpha  occ. eigenvalues --   -1.87089  -1.86631  -1.86513  -1.86502  -1.86485
 Alpha  occ. eigenvalues --   -1.86457  -1.86435  -1.86349  -1.86328  -1.86314
 Alpha  occ. eigenvalues --   -1.86299  -1.86285  -1.86264  -1.86147  -1.86137
 Alpha  occ. eigenvalues --   -1.86123  -1.86112  -1.86041  -1.86025  -1.85992
 Alpha  occ. eigenvalues --   -1.85921  -1.85901  -1.85803  -1.85716  -1.85663
 Alpha  occ. eigenvalues --   -1.51200  -1.51114  -1.51104  -1.13030  -1.11256
 Alpha  occ. eigenvalues --   -1.11172  -1.11170  -1.08968  -1.08535  -1.08499
 Alpha  occ. eigenvalues --   -1.08324  -1.07562  -1.07495  -1.07490  -1.06906
 Alpha  occ. eigenvalues --   -1.06895  -1.06876  -1.06318  -1.06292  -1.05343
 Alpha  occ. eigenvalues --   -1.05335  -1.04986  -1.04980  -1.04964  -1.04218
 Alpha  occ. eigenvalues --   -1.04214  -1.04187  -1.04044  -1.04016  -1.04005
 Alpha  occ. eigenvalues --   -1.03948  -1.03928  -1.03901  -1.03769  -1.03755
 Alpha  occ. eigenvalues --   -1.03625  -1.03570  -1.03309  -1.03276  -1.03140
 Alpha  occ. eigenvalues --   -1.03128  -1.03060  -1.02979  -0.94354  -0.86668
 Alpha  occ. eigenvalues --   -0.86592  -0.86580  -0.86491  -0.86476  -0.86475
 Alpha  occ. eigenvalues --   -0.86397  -0.86394  -0.86385  -0.86359  -0.82799
 Alpha  occ. eigenvalues --   -0.79704  -0.71640  -0.69640  -0.67975  -0.64608
 Alpha  occ. eigenvalues --   -0.63980  -0.63910  -0.63890  -0.63290  -0.63269
 Alpha  occ. eigenvalues --   -0.63157  -0.62915  -0.62662  -0.62600  -0.61963
 Alpha  occ. eigenvalues --   -0.61609  -0.61589  -0.61497  -0.61251  -0.61233
 Alpha  occ. eigenvalues --   -0.61184  -0.60418  -0.59476  -0.59450  -0.59441
 Alpha  occ. eigenvalues --   -0.59401  -0.59363  -0.58607  -0.58008  -0.57972
 Alpha  occ. eigenvalues --   -0.57892  -0.57053  -0.57027  -0.56999  -0.56287
 Alpha  occ. eigenvalues --   -0.56267  -0.56113  -0.55710  -0.54873  -0.54814
 Alpha  occ. eigenvalues --   -0.54769  -0.54511  -0.54241  -0.54114  -0.54105
 Alpha  occ. eigenvalues --   -0.54034  -0.53963  -0.53261  -0.53227  -0.53090
 Alpha  occ. eigenvalues --   -0.53051  -0.52912  -0.52734  -0.52703  -0.52654
 Alpha  occ. eigenvalues --   -0.52626  -0.52513  -0.52465  -0.52390  -0.51624
 Alpha  occ. eigenvalues --   -0.51609  -0.51360  -0.51330  -0.51297  -0.51250
 Alpha  occ. eigenvalues --   -0.51190  -0.51170  -0.50947  -0.50792  -0.50619
 Alpha  occ. eigenvalues --   -0.50596  -0.50589  -0.49924  -0.49906  -0.49303
 Alpha  occ. eigenvalues --   -0.49272  -0.49232  -0.49219  -0.49168  -0.49089
 Alpha  occ. eigenvalues --   -0.48902  -0.48083  -0.48035  -0.47922  -0.47626
 Alpha  occ. eigenvalues --   -0.47396  -0.47297  -0.47253  -0.47012  -0.46970
 Alpha  occ. eigenvalues --   -0.46872  -0.46580  -0.46571  -0.46500  -0.46206
 Alpha  occ. eigenvalues --   -0.46155  -0.46113  -0.45619  -0.45111  -0.44932
 Alpha  occ. eigenvalues --   -0.44894  -0.44209  -0.44154  -0.44041  -0.43498
 Alpha  occ. eigenvalues --   -0.43311  -0.43264  -0.43137  -0.43126  -0.43091
 Alpha  occ. eigenvalues --   -0.42746  -0.42723  -0.42687  -0.42612  -0.42600
 Alpha  occ. eigenvalues --   -0.42524  -0.42489  -0.42475  -0.42308  -0.42296
 Alpha  occ. eigenvalues --   -0.42274  -0.42044  -0.41921  -0.41876  -0.41861
 Alpha  occ. eigenvalues --   -0.41222  -0.41202  -0.41143  -0.41068  -0.40576
 Alpha  occ. eigenvalues --   -0.40560  -0.40550  -0.40364  -0.39455  -0.39445
 Alpha  occ. eigenvalues --   -0.37008  -0.32551  -0.29206  -0.25157  -0.25127
 Alpha  occ. eigenvalues --   -0.23486
 Alpha virt. eigenvalues --   -0.09381  -0.09175  -0.08423  -0.08372  -0.06958
 Alpha virt. eigenvalues --   -0.06941  -0.06864  -0.04392  -0.04111  -0.04060
 Alpha virt. eigenvalues --   -0.03728  -0.03497  -0.03443  -0.03230  -0.03106

 Mulliken charges:
               1
     1  Cl  -0.892539
     2  C   -0.082202
     3  C    0.049487
     4  C   -0.081195
     5  C   -0.034020
     6  C   -0.033377
     7  C   -0.049214
     8  H    0.029389
     9  H    0.029003
    10  H    0.040865
    11  H    0.036801
    12  H    0.039400
    13  C   -0.127131
    14  C    0.031400
    15  H    0.019870
    16  H    0.035021
    17  H    0.026128
    18  O   -0.662863
    19  O   -0.661399
    20  O   -0.655048
    21  O   -0.663395
    22  W    1.731678
    23  W    1.673542
    24  W    1.684035
    25  W    1.694654
    26  W    1.675527
    27  W    1.726680
    28  W    1.616763
    29  W    1.685264
    30  O   -0.320237
    31  O   -0.365739
    32  O   -0.367243
    33  O   -0.358740
    34  O   -0.662699
    35  O   -0.670316
    36  O   -0.660601
    37  O   -0.662959
    38  O   -0.367377
    39  O   -0.365144
    40  O   -0.298150
    41  O   -0.364741
    42  O   -0.669723
    43  O   -0.663383
    44  O   -0.658902
    45  O   -0.665648
    46  O   -0.367244
    47  O   -0.320292
    48  O   -0.360396
    49  O   -0.362759
    50  W    1.671599
    51  W    1.678021
    52  W    1.683368
    53  W    1.684219
    54  O   -0.725156
    55  O   -0.706894
    56  O   -0.725131
    57  O   -0.723109
    58  O   -0.704565
    59  O   -0.725747
    60  O   -0.725113
    61  O   -0.719850
    62  O   -0.724476
    63  O   -0.706344
    64  O   -0.725622
    65  O   -0.725709
    66  O   -0.801357
    67  O   -0.800566
    68  O   -0.797986
    69  O   -0.808788
    70  K    0.864364
    71  K    0.861984
    72  K    0.861388
    73  V    1.190640
 Sum of Mulliken charges =  -1.00000

 Dipole moment (field-independent basis, Debye):
    X=             50.0943    Y=            -51.1843    Z=            -38.9235  Tot=             81.5127
 Quadrupole moment (field-independent basis, Debye-Ang):
   XX=          -1040.4968   YY=           -887.6036   ZZ=           -919.4468
   XY=            446.1737   XZ=            448.6735   YZ=           -477.0847

 Normal termination of Gaussian 16 at Mon Jun  3 02:42:40 2024.
