 Gaussian 16, Revision C.01,
 Gaussian 16:  ES64L-G16RevC.01  3-Jul-2019

 ----------------------------------------------------------------------
 # def2svp wb97xd scrf=(smd,solvent=acetonitrile) g09default scf=(xqc,m
 axcycle=64) force guess=read nosymm
 ----------------------------------------------------------------------

 ----------
 Title Card
 ----------
 Symbolic Z-matrix:
 Charge = -1 Multiplicity = 1

                          Input orientation:
 ---------------------------------------------------------------------
 Center     Atomic      Atomic             Coordinates (Angstroms)
 Number     Number       Type             X           Y           Z
 ---------------------------------------------------------------------
      1         17           0       -9.658574    8.269991   10.535215
      2          6           0       -8.371235    4.275553   12.203558
      3          6           0       -9.170252    3.948786   11.091502
      4          6           0      -10.082194    2.884894   11.219983
      5          6           0      -10.208561    2.188710   12.417875
      6          6           0       -9.412667    2.529137   13.512750
      7          6           0       -8.491720    3.572978   13.398055
      8          1           0       -7.648612    5.091907   12.138635
      9          1           0      -10.709673    2.617947   10.364847
     10          1           0      -10.935721    1.377331   12.500114
     11          1           0       -9.500742    1.976236   14.450295
     12          1           0       -7.867954    3.849051   14.251962
     13          6           0       -9.121542    4.696974    9.834464
     14          6           0       -8.436439    5.840540    9.625759
     15          1           0       -9.730276    4.287738    9.020050
     16          1           0       -8.469170    6.346072    8.660418
     17          1           0       -7.774793    6.270207   10.377692
     18          8           0       -0.975411   -1.815961    7.457858
     19          8           0       -8.377599   -1.325914    7.461925
     20          8           0       -7.010163    1.337586   10.483242
     21          8           0       -2.331494   -4.397760   10.555022
     22         74           0       -3.383914    0.707060    6.497131
     23         74           0       -5.992190   -3.837701    6.566796
     24         74           0       -3.591119    0.876715   11.401888
     25         74           0       -5.767596   -3.883745   11.474911
     26         74           0       -2.440621   -2.587819    6.384907
     27         74           0       -6.913699   -0.542694    6.354604
     28         74           0       -6.793291   -0.261795   11.580438
     29         74           0       -2.552121   -2.743461   11.616441
     30          8           0       -3.144398    1.899264    5.326726
     31          8           0       -6.130778   -5.086900    5.423896
     32          8           0       -2.664465    1.716083   12.553142
     33          8           0       -6.681638   -4.692441   12.655347
     34          8           0       -2.661639   -0.911855    5.587668
     35          8           0       -6.693587   -2.276878    5.620794
     36          8           0       -5.283649    0.542644   12.359442
     37          8           0       -4.053548   -3.542362   12.408945
     38          8           0        0.334614   -0.053553    9.271810
     39          8           0       -9.692687   -3.023441    9.318344
     40          8           0       -6.362586    3.418404    8.671270
     41          8           0       -2.993832   -6.495461    8.745717
     42          8           0       -1.763620    0.735078    7.478277
     43          8           0       -7.597392   -3.882421    7.546131
     44          8           0       -4.481215    2.193863   10.423305
     45          8           0       -4.868525   -5.239403   10.524154
     46          8           0       -1.612238   -3.522367    5.231566
     47          8           0       -7.789626    0.262960    5.157461
     48          8           0       -8.008359   -0.161399   12.762307
     49          8           0       -1.323164   -2.867787   12.782921
     50         74           0       -1.228042   -0.564577    8.839602
     51         74           0       -8.130293   -2.524282    8.873681
     52         74           0       -5.881845    1.847304    9.046865
     53         74           0       -3.480250   -4.920851    9.160459
     54          8           0       -4.216678   -3.121831    6.068091
     55          8           0       -5.135508   -0.056666    6.017926
     56          8           0       -6.165736   -2.013405   11.921356
     57          8           0       -3.161174   -0.993120   11.915132
     58          8           0       -4.342837    1.580754    7.843995
     59          8           0       -5.006946   -4.698358    7.921999
     60          8           0       -2.298051    0.558248   10.074489
     61          8           0       -7.048914   -3.620292   10.133006
     62          8           0       -2.572534   -3.914360    7.859215
     63          8           0       -6.799400    0.788637    7.800691
     64          8           0       -7.813675   -1.180273   10.152405
     65          8           0       -1.541167   -1.884411   10.146538
     66          8           0       -3.347308   -1.164582    8.014621
     67          8           0       -6.006672   -1.967301    8.034347
     68          8           0       -5.102638   -0.215500    9.942994
     69          8           0       -4.236201   -2.853821    9.975888
     70         19           0       -3.219974   -6.141179    5.648658
     71         19           0       -0.128094    0.006346   12.316423
     72         19           0       -9.287903   -2.818908   12.410036
     73         23           0       -4.675266   -1.546573    8.989904
 ---------------------------------------------------------------------

 SCF Done:  E(UwB97XD) =  -7327.70206589     A.U. after   42 cycles

 Alpha  occ. eigenvalues --  -19.24654 -18.94035 -18.92962 -18.92897 -13.36491
 Alpha  occ. eigenvalues --  -13.36478 -13.36424 -10.69418 -10.69414 -10.69413
 Alpha  occ. eigenvalues --  -10.69407 -10.69402 -10.69397 -10.69352 -10.69348
 Alpha  occ. eigenvalues --  -10.69346 -10.33069 -10.32277 -10.32017 -10.31039
 Alpha  occ. eigenvalues --  -10.31026 -10.31016 -10.30591 -10.30543  -9.52423
 Alpha  occ. eigenvalues --   -7.27306  -7.26967  -7.26964  -3.21107  -3.21098
 Alpha  occ. eigenvalues --   -3.21068  -3.21045  -3.21027  -3.21018  -3.21006
 Alpha  occ. eigenvalues --   -3.21001  -3.20998  -3.20859  -3.20853  -3.20829
 Alpha  occ. eigenvalues --   -2.78769  -1.85349  -1.85292  -1.85282  -1.85252
 Alpha  occ. eigenvalues --   -1.85148  -1.85080  -1.85064  -1.85042  -1.85027
 Alpha  occ. eigenvalues --   -1.85021  -1.84999  -1.84951  -1.84395  -1.84282
 Alpha  occ. eigenvalues --   -1.84273  -1.84253  -1.84221  -1.84208  -1.84153
 Alpha  occ. eigenvalues --   -1.84135  -1.84108  -1.84100  -1.84068  -1.84060
 Alpha  occ. eigenvalues --   -1.83958  -1.83919  -1.83885  -1.83881  -1.83864
 Alpha  occ. eigenvalues --   -1.83830  -1.83804  -1.83794  -1.83787  -1.83692
 Alpha  occ. eigenvalues --   -1.83683  -1.83672  -1.81935  -1.81605  -1.81569
 Alpha  occ. eigenvalues --   -1.50195  -1.50187  -1.50135  -1.08623  -1.07002
 Alpha  occ. eigenvalues --   -1.06959  -1.06920  -1.06017  -1.06007  -1.05984
 Alpha  occ. eigenvalues --   -1.04587  -1.04576  -1.04570  -1.03977  -1.03972
 Alpha  occ. eigenvalues --   -1.03704  -1.03368  -1.03335  -1.03315  -1.03048
 Alpha  occ. eigenvalues --   -1.03030  -1.02267  -1.02235  -1.02229  -1.02109
 Alpha  occ. eigenvalues --   -1.02028  -1.02002  -1.01918  -1.01909  -1.01795
 Alpha  occ. eigenvalues --   -1.01774  -1.01757  -1.01622  -1.01585  -1.01579
 Alpha  occ. eigenvalues --   -1.01316  -1.00822  -1.00782  -1.00726  -1.00722
 Alpha  occ. eigenvalues --   -0.99996  -0.99942  -0.99880  -0.96234  -0.89351
 Alpha  occ. eigenvalues --   -0.85638  -0.85638  -0.85590  -0.85493  -0.85484
 Alpha  occ. eigenvalues --   -0.85483  -0.85450  -0.85433  -0.85418  -0.84313
 Alpha  occ. eigenvalues --   -0.82507  -0.80955  -0.71961  -0.69649  -0.65113
 Alpha  occ. eigenvalues --   -0.62328  -0.61717  -0.61656  -0.61629  -0.60661
 Alpha  occ. eigenvalues --   -0.58984  -0.58962  -0.58950  -0.58895  -0.58821
 Alpha  occ. eigenvalues --   -0.58779  -0.58751  -0.58714  -0.58555  -0.57373
 Alpha  occ. eigenvalues --   -0.57333  -0.57302  -0.57018  -0.56814  -0.56502
 Alpha  occ. eigenvalues --   -0.56455  -0.56416  -0.56020  -0.55869  -0.55368
 Alpha  occ. eigenvalues --   -0.55358  -0.55318  -0.54434  -0.54184  -0.54155
 Alpha  occ. eigenvalues --   -0.53996  -0.53691  -0.53636  -0.53628  -0.52785
 Alpha  occ. eigenvalues --   -0.52663  -0.52614  -0.52502  -0.52465  -0.51493
 Alpha  occ. eigenvalues --   -0.51485  -0.51469  -0.51387  -0.51327  -0.50823
 Alpha  occ. eigenvalues --   -0.50577  -0.50541  -0.50491  -0.50411  -0.50346
 Alpha  occ. eigenvalues --   -0.50287  -0.50087  -0.50046  -0.50021  -0.49770
 Alpha  occ. eigenvalues --   -0.49676  -0.49644  -0.49517  -0.49499  -0.49296
 Alpha  occ. eigenvalues --   -0.49253  -0.49204  -0.49125  -0.49074  -0.48998
 Alpha  occ. eigenvalues --   -0.48728  -0.48565  -0.48542  -0.48482  -0.47702
 Alpha  occ. eigenvalues --   -0.47680  -0.47215  -0.46487  -0.46052  -0.46033
 Alpha  occ. eigenvalues --   -0.45885  -0.45875  -0.45763  -0.45637  -0.45229
 Alpha  occ. eigenvalues --   -0.45152  -0.45146  -0.44835  -0.44639  -0.44500
 Alpha  occ. eigenvalues --   -0.44485  -0.44462  -0.44296  -0.44256  -0.44236
 Alpha  occ. eigenvalues --   -0.43438  -0.43165  -0.42560  -0.42531  -0.42461
 Alpha  occ. eigenvalues --   -0.42327  -0.42213  -0.42177  -0.42168  -0.41641
 Alpha  occ. eigenvalues --   -0.41627  -0.41585  -0.41046  -0.40999  -0.40794
 Alpha  occ. eigenvalues --   -0.40781  -0.40765  -0.40415  -0.40398  -0.40361
 Alpha  occ. eigenvalues --   -0.40226  -0.40198  -0.40183  -0.40142  -0.39881
 Alpha  occ. eigenvalues --   -0.39362  -0.39276  -0.39246  -0.39156  -0.39055
 Alpha  occ. eigenvalues --   -0.38944  -0.38914  -0.38827  -0.38758  -0.38712
 Alpha  occ. eigenvalues --   -0.38328  -0.38305  -0.38269  -0.38103  -0.37219
 Alpha  occ. eigenvalues --   -0.37197  -0.34661  -0.34624  -0.33694  -0.30479
 Alpha  occ. eigenvalues --   -0.25732
 Alpha virt. eigenvalues --   -0.11960  -0.06297  -0.06244  -0.04807  -0.04771
 Alpha virt. eigenvalues --   -0.04684  -0.01527  -0.01413  -0.01367  -0.01121
 Alpha virt. eigenvalues --   -0.00928  -0.00904  -0.00867  -0.00165  -0.00093

  Beta  occ. eigenvalues -- -197.10770-129.99083-129.99078-129.99020-101.62412
  Beta  occ. eigenvalues --  -22.43198 -19.28531 -19.28516 -19.28457 -19.28445
  Beta  occ. eigenvalues --  -19.28400 -19.28382 -19.28371 -19.28359 -19.28347
  Beta  occ. eigenvalues --  -19.28277 -19.28242 -19.28170 -19.26961 -19.26946
  Beta  occ. eigenvalues --  -19.26935 -19.26887 -19.26886 -19.26879 -19.26861
  Beta  occ. eigenvalues --  -19.26857 -19.26844 -19.26839 -19.26829 -19.26827
  Beta  occ. eigenvalues --  -19.26819 -19.26818 -19.26807 -19.26801 -19.26801
  Beta  occ. eigenvalues --  -19.26778 -19.26777 -19.26776 -19.26765 -19.26723
  Beta  occ. eigenvalues --  -19.26674 -19.26650 -19.24714 -19.24683 -19.24653
  Beta  occ. eigenvalues --  -19.24629 -18.93689 -18.91532 -18.91403 -13.36491
  Beta  occ. eigenvalues --  -13.36478 -13.36424 -10.69418 -10.69414 -10.69413
  Beta  occ. eigenvalues --  -10.69407 -10.69402 -10.69397 -10.69352 -10.69348
  Beta  occ. eigenvalues --  -10.69346 -10.33357 -10.32392 -10.31964 -10.31153
  Beta  occ. eigenvalues --  -10.31145 -10.31119 -10.30531 -10.30482  -9.52869
  Beta  occ. eigenvalues --   -7.28705  -7.27272  -7.27269  -3.21105  -3.21093
  Beta  occ. eigenvalues --   -3.21068  -3.21039  -3.21026  -3.21011  -3.21000
  Beta  occ. eigenvalues --   -3.20995  -3.20992  -3.20859  -3.20848  -3.20824
  Beta  occ. eigenvalues --   -2.74708  -1.85344  -1.85287  -1.85277  -1.85244
  Beta  occ. eigenvalues --   -1.85143  -1.85074  -1.85059  -1.85036  -1.85020
  Beta  occ. eigenvalues --   -1.85011  -1.84994  -1.84942  -1.84393  -1.84280
  Beta  occ. eigenvalues --   -1.84270  -1.84251  -1.84218  -1.84205  -1.84150
  Beta  occ. eigenvalues --   -1.84133  -1.84104  -1.84097  -1.84065  -1.84057
  Beta  occ. eigenvalues --   -1.83956  -1.83916  -1.83883  -1.83878  -1.83861
  Beta  occ. eigenvalues --   -1.83827  -1.83801  -1.83791  -1.83783  -1.83690
  Beta  occ. eigenvalues --   -1.83680  -1.83669  -1.80595  -1.75981  -1.75700
  Beta  occ. eigenvalues --   -1.50195  -1.50187  -1.50135  -1.08605  -1.06981
  Beta  occ. eigenvalues --   -1.06939  -1.06894  -1.06015  -1.06005  -1.05982
  Beta  occ. eigenvalues --   -1.04588  -1.04577  -1.04568  -1.03977  -1.03973
  Beta  occ. eigenvalues --   -1.03637  -1.03335  -1.03297  -1.03284  -1.03046
  Beta  occ. eigenvalues --   -1.03022  -1.02249  -1.02214  -1.02208  -1.02101
  Beta  occ. eigenvalues --   -1.02023  -1.01989  -1.01913  -1.01895  -1.01790
  Beta  occ. eigenvalues --   -1.01772  -1.01753  -1.01617  -1.01583  -1.01564
  Beta  occ. eigenvalues --   -1.01316  -1.00794  -1.00769  -1.00726  -1.00721
  Beta  occ. eigenvalues --   -0.99859  -0.99802  -0.99758  -0.96469  -0.90036
  Beta  occ. eigenvalues --   -0.85638  -0.85638  -0.85590  -0.85493  -0.85484
  Beta  occ. eigenvalues --   -0.85483  -0.85450  -0.85432  -0.85418  -0.84578
  Beta  occ. eigenvalues --   -0.84371  -0.82710  -0.72223  -0.69773  -0.65369
  Beta  occ. eigenvalues --   -0.62327  -0.61717  -0.61655  -0.61629  -0.60877
  Beta  occ. eigenvalues --   -0.58980  -0.58960  -0.58950  -0.58805  -0.58778
  Beta  occ. eigenvalues --   -0.58745  -0.58736  -0.58686  -0.58555  -0.57341
  Beta  occ. eigenvalues --   -0.57188  -0.57134  -0.57040  -0.56930  -0.56504
  Beta  occ. eigenvalues --   -0.56424  -0.56380  -0.55824  -0.55613  -0.55347
  Beta  occ. eigenvalues --   -0.55337  -0.55322  -0.54640  -0.54175  -0.54146
  Beta  occ. eigenvalues --   -0.53984  -0.53660  -0.53615  -0.53579  -0.52855
  Beta  occ. eigenvalues --   -0.52665  -0.52600  -0.52483  -0.52460  -0.51481
  Beta  occ. eigenvalues --   -0.51458  -0.51449  -0.51327  -0.51264  -0.51026
  Beta  occ. eigenvalues --   -0.50570  -0.50477  -0.50471  -0.50344  -0.50249
  Beta  occ. eigenvalues --   -0.50183  -0.50055  -0.50044  -0.49987  -0.49719
  Beta  occ. eigenvalues --   -0.49654  -0.49611  -0.49507  -0.49489  -0.49295
  Beta  occ. eigenvalues --   -0.49231  -0.49204  -0.49093  -0.49057  -0.48974
  Beta  occ. eigenvalues --   -0.48721  -0.48561  -0.48541  -0.48475  -0.47899
  Beta  occ. eigenvalues --   -0.47661  -0.47616  -0.46064  -0.45910  -0.45880
  Beta  occ. eigenvalues --   -0.45816  -0.45679  -0.45578  -0.45228  -0.45170
  Beta  occ. eigenvalues --   -0.45153  -0.45058  -0.44834  -0.44637  -0.44476
  Beta  occ. eigenvalues --   -0.44451  -0.44437  -0.44282  -0.44228  -0.44203
  Beta  occ. eigenvalues --   -0.43431  -0.43272  -0.42512  -0.42472  -0.42429
  Beta  occ. eigenvalues --   -0.42304  -0.42253  -0.42140  -0.42129  -0.41639
  Beta  occ. eigenvalues --   -0.41612  -0.41566  -0.41432  -0.41051  -0.40961
  Beta  occ. eigenvalues --   -0.40769  -0.40730  -0.40702  -0.40401  -0.40387
  Beta  occ. eigenvalues --   -0.40346  -0.40181  -0.40169  -0.40155  -0.39823
  Beta  occ. eigenvalues --   -0.39649  -0.39361  -0.39180  -0.39111  -0.39107
  Beta  occ. eigenvalues --   -0.38921  -0.38883  -0.38831  -0.38743  -0.38705
  Beta  occ. eigenvalues --   -0.38663  -0.38322  -0.38299  -0.38263  -0.37614
  Beta  occ. eigenvalues --   -0.37220  -0.37192  -0.35588  -0.35545  -0.33985
  Beta  occ. eigenvalues --   -0.30871
  Beta virt. eigenvalues --   -0.06295  -0.06245  -0.04806  -0.04770  -0.04683
  Beta virt. eigenvalues --   -0.01523  -0.01408  -0.01361  -0.01115  -0.00923
  Beta virt. eigenvalues --   -0.00899  -0.00862  -0.00155  -0.00082  -0.00047

 Mulliken charges and spin densities:
               1          2
     1  Cl  -0.355060  -0.600013
     2  C   -0.035852  -0.098925
     3  C    0.011783   0.060086
     4  C   -0.035071  -0.094570
     5  C   -0.031853   0.060148
     6  C    0.009072  -0.118713
     7  C   -0.047359   0.060436
     8  H    0.050410   0.004275
     9  H    0.051098   0.004053
    10  H    0.056234  -0.002148
    11  H    0.057488   0.005204
    12  H    0.054469  -0.002120
    13  C    0.006614  -0.269481
    14  C   -0.039803  -0.016946
    15  H    0.076817   0.011010
    16  H    0.094831   0.000972
    17  H    0.089541  -0.001732
    18  O   -0.671769  -0.000564
    19  O   -0.670223  -0.000524
    20  O   -0.666042  -0.001536
    21  O   -0.672379  -0.000541
    22  W    1.714873   0.000353
    23  W    1.659174   0.000482
    24  W    1.671425   0.000163
    25  W    1.680464   0.000220
    26  W    1.661817   0.002715
    27  W    1.708799   0.002445
    28  W    1.608756   0.003328
    29  W    1.670885   0.002796
    30  O   -0.350128  -0.000525
    31  O   -0.394110  -0.000569
    32  O   -0.395758  -0.000614
    33  O   -0.387527  -0.000568
    34  O   -0.671061  -0.000285
    35  O   -0.677700  -0.000019
    36  O   -0.669585  -0.000126
    37  O   -0.671895  -0.000190
    38  O   -0.397296   0.002126
    39  O   -0.395331   0.002170
    40  O   -0.340989   0.000395
    41  O   -0.394870   0.002149
    42  O   -0.677287   0.000044
    43  O   -0.671993   0.000147
    44  O   -0.667527   0.000265
    45  O   -0.673984   0.000092
    46  O   -0.397195   0.002272
    47  O   -0.351988   0.002136
    48  O   -0.393804   0.001780
    49  O   -0.392916   0.002290
    50  W    1.657667   0.002842
    51  W    1.663597   0.002740
    52  W    1.676574   0.003928
    53  W    1.669482   0.002690
    54  O   -0.723074   0.000099
    55  O   -0.705083   0.000007
    56  O   -0.721960   0.000141
    57  O   -0.720962   0.000069
    58  O   -0.702406   0.000077
    59  O   -0.723085   0.000159
    60  O   -0.722720   0.000213
    61  O   -0.717527   0.000201
    62  O   -0.722860  -0.000182
    63  O   -0.705044  -0.000057
    64  O   -0.724709  -0.000196
    65  O   -0.723910  -0.000200
    66  O   -0.883581   0.005287
    67  O   -0.883666   0.007300
    68  O   -0.881022   0.007244
    69  O   -0.888596   0.006545
    70  K    0.850705   0.000193
    71  K    0.848197   0.000220
    72  K    0.847538   0.000216
    73  V    1.200246   0.936616
 Sum of Mulliken charges =  -1.00000   0.00000

 Dipole moment (field-independent basis, Debye):
    X=             27.8898    Y=            -13.7825    Z=            -30.8051  Tot=             43.7807
 Quadrupole moment (field-independent basis, Debye-Ang):
   XX=           -757.4624   YY=           -711.6759   ZZ=           -784.0279
   XY=            127.0574   XZ=            172.6192   YZ=            -93.8265

 Normal termination of Gaussian 16 at Mon Jun  3 02:31:51 2024.
