 Gaussian 16, Revision C.01,
 Gaussian 16:  ES64L-G16RevC.01  3-Jul-2019

 ----------------------------------------------------------------------
 # def2svp wb97xd scrf=(smd,solvent=acetonitrile) g09default scf=(xqc,m
 axcycle=64) force guess=read nosymm
 ----------------------------------------------------------------------

 ----------
 Title Card
 ----------
 Symbolic Z-matrix:
 Charge = -1 Multiplicity = 1

                          Input orientation:
 ---------------------------------------------------------------------
 Center     Atomic      Atomic             Coordinates (Angstroms)
 Number     Number       Type             X           Y           Z
 ---------------------------------------------------------------------
      1         17           0       -9.663698    8.271175   10.535436
      2          6           0       -8.374556    4.278411   12.202533
      3          6           0       -9.174829    3.951736   11.091387
      4          6           0      -10.085871    2.887122   11.220724
      5          6           0      -10.208753    2.189262   12.418165
      6          6           0       -9.410362    2.528573   13.511472
      7          6           0       -8.491447    3.574139   13.396407
      8          1           0       -7.653916    5.096436   12.137676
      9          1           0      -10.715468    2.620556   10.367035
     10          1           0      -10.935494    1.377564   12.501340
     11          1           0       -9.494878    1.973699   14.448216
     12          1           0       -7.866694    3.850704   14.249343
     13          6           0       -9.127103    4.701079    9.834887
     14          6           0       -8.437535    5.841916    9.625698
     15          1           0       -9.739870    4.295391    9.021714
     16          1           0       -8.469842    6.348885    8.661146
     17          1           0       -7.771095    6.266835   10.376186
     18          8           0       -0.975315   -1.817592    7.456995
     19          8           0       -8.376731   -1.325022    7.461708
     20          8           0       -7.009416    1.336384   10.484474
     21          8           0       -2.330709   -4.397735   10.555045
     22         74           0       -3.382107    0.708690    6.499164
     23         74           0       -5.992870   -3.839480    6.568304
     24         74           0       -3.589002    0.877617   11.400427
     25         74           0       -5.768212   -3.885776   11.473511
     26         74           0       -2.442060   -2.587536    6.382817
     27         74           0       -6.911223   -0.543547    6.353080
     28         74           0       -6.790822   -0.263064   11.582741
     29         74           0       -2.553109   -2.743606   11.617938
     30          8           0       -3.141767    1.901836    5.330104
     31          8           0       -6.132275   -5.088773    5.425384
     32          8           0       -2.662610    1.717334   12.551516
     33          8           0       -6.681635   -4.695575   12.653696
     34          8           0       -2.661405   -0.911113    5.587526
     35          8           0       -6.692758   -2.277711    5.620904
     36          8           0       -5.281395    0.541832   12.359825
     37          8           0       -4.053966   -3.543250   12.408899
     38          8           0        0.336684   -0.057876    9.271114
     39          8           0       -9.693355   -3.020440    9.318009
     40          8           0       -6.364942    3.416974    8.672479
     41          8           0       -2.991079   -6.495421    8.745895
     42          8           0       -1.762131    0.734309    7.479342
     43          8           0       -7.597671   -3.882210    7.546936
     44          8           0       -4.480632    2.193760   10.423171
     45          8           0       -4.867779   -5.239951   10.523059
     46          8           0       -1.613995   -3.521859    5.228945
     47          8           0       -7.787033    0.261831    5.155544
     48          8           0       -8.005438   -0.161871   12.764878
     49          8           0       -1.324179   -2.868431   12.784544
     50         74           0       -1.226313   -0.567851    8.839476
     51         74           0       -8.130554   -2.522043    8.873806
     52         74           0       -5.883310    1.846290    9.047424
     53         74           0       -3.477949   -4.920630    9.160160
     54          8           0       -4.217228   -3.122409    6.067462
     55          8           0       -5.134039   -0.055937    6.017800
     56          8           0       -6.165485   -2.014994   11.922231
     57          8           0       -3.159911   -0.993170   11.915559
     58          8           0       -4.342328    1.580965    7.845016
     59          8           0       -5.006264   -4.699662    7.921603
     60          8           0       -2.296179    0.557499   10.074397
     61          8           0       -7.049720   -3.620751   10.133137
     62          8           0       -2.572246   -3.914730    7.858081
     63          8           0       -6.798800    0.788044    7.800540
     64          8           0       -7.812892   -1.180236   10.153528
     65          8           0       -1.540301   -1.885545   10.147130
     66          8           0       -3.346716   -1.164992    8.014579
     67          8           0       -6.006101   -1.967602    8.034502
     68          8           0       -5.101633   -0.216012    9.943359
     69          8           0       -4.235771   -2.854157    9.975772
     70         19           0       -3.220700   -6.142403    5.648652
     71         19           0       -0.128356    0.001664   12.316241
     72         19           0       -9.289007   -2.819001   12.408200
     73         23           0       -4.674627   -1.546957    8.989882
 ---------------------------------------------------------------------

 SCF Done:  E(RwB97XD) =  -7327.70212985     A.U. after   12 cycles

 Alpha  occ. eigenvalues -- -197.29337-130.00109-130.00019-130.00015-101.48378
 Alpha  occ. eigenvalues --  -22.62473 -19.33608 -19.33606 -19.33601 -19.33574
 Alpha  occ. eigenvalues --  -19.30732 -19.30697 -19.30695 -19.30690 -19.30672
 Alpha  occ. eigenvalues --  -19.30668 -19.30667 -19.30644 -19.30586 -19.30373
 Alpha  occ. eigenvalues --  -19.30349 -19.30174 -19.29350 -19.29344 -19.29325
 Alpha  occ. eigenvalues --  -19.29316 -19.29310 -19.29292 -19.29289 -19.29262
 Alpha  occ. eigenvalues --  -19.29228 -19.29200 -19.29195 -19.29178 -19.29173
 Alpha  occ. eigenvalues --  -19.29143 -19.29119 -19.29110 -19.29108 -19.29102
 Alpha  occ. eigenvalues --  -19.29092 -19.29071 -19.29025 -19.28990 -19.28977
 Alpha  occ. eigenvalues --  -19.28885 -19.11428 -19.11420 -19.11412 -13.37512
 Alpha  occ. eigenvalues --  -13.37413 -13.37412 -10.70441 -10.70434 -10.70434
 Alpha  occ. eigenvalues --  -10.70344 -10.70343 -10.70337 -10.70336 -10.70335
 Alpha  occ. eigenvalues --  -10.70332 -10.29837 -10.29314 -10.29284 -10.29029
 Alpha  occ. eigenvalues --  -10.28948 -10.28912 -10.28119 -10.27422  -9.38852
 Alpha  occ. eigenvalues --   -7.13681  -7.13627  -7.13622  -3.23315  -3.23313
 Alpha  occ. eigenvalues --   -3.23297  -3.23291  -3.23288  -3.23250  -3.23250
 Alpha  occ. eigenvalues --   -3.23247  -3.23225  -3.22966  -3.22948  -3.22767
 Alpha  occ. eigenvalues --   -2.91749  -1.94138  -1.94107  -1.94097  -1.87717
 Alpha  occ. eigenvalues --   -1.87671  -1.87658  -1.87622  -1.87491  -1.87470
 Alpha  occ. eigenvalues --   -1.87469  -1.87451  -1.87428  -1.87274  -1.87245
 Alpha  occ. eigenvalues --   -1.87092  -1.86631  -1.86512  -1.86502  -1.86485
 Alpha  occ. eigenvalues --   -1.86457  -1.86434  -1.86348  -1.86326  -1.86313
 Alpha  occ. eigenvalues --   -1.86299  -1.86283  -1.86263  -1.86146  -1.86136
 Alpha  occ. eigenvalues --   -1.86122  -1.86111  -1.86041  -1.86024  -1.85992
 Alpha  occ. eigenvalues --   -1.85919  -1.85899  -1.85802  -1.85715  -1.85661
 Alpha  occ. eigenvalues --   -1.51201  -1.51110  -1.51107  -1.13028  -1.11255
 Alpha  occ. eigenvalues --   -1.11169  -1.11168  -1.08968  -1.08535  -1.08500
 Alpha  occ. eigenvalues --   -1.08322  -1.07562  -1.07494  -1.07489  -1.06906
 Alpha  occ. eigenvalues --   -1.06894  -1.06875  -1.06316  -1.06290  -1.05345
 Alpha  occ. eigenvalues --   -1.05338  -1.04986  -1.04979  -1.04962  -1.04221
 Alpha  occ. eigenvalues --   -1.04216  -1.04188  -1.04045  -1.04015  -1.04003
 Alpha  occ. eigenvalues --   -1.03947  -1.03927  -1.03900  -1.03768  -1.03756
 Alpha  occ. eigenvalues --   -1.03624  -1.03570  -1.03312  -1.03274  -1.03143
 Alpha  occ. eigenvalues --   -1.03133  -1.03063  -1.02984  -0.94355  -0.86668
 Alpha  occ. eigenvalues --   -0.86589  -0.86583  -0.86495  -0.86477  -0.86476
 Alpha  occ. eigenvalues --   -0.86398  -0.86394  -0.86383  -0.86362  -0.82799
 Alpha  occ. eigenvalues --   -0.79706  -0.71630  -0.69642  -0.67978  -0.64605
 Alpha  occ. eigenvalues --   -0.63977  -0.63908  -0.63888  -0.63287  -0.63266
 Alpha  occ. eigenvalues --   -0.63156  -0.62920  -0.62661  -0.62599  -0.61959
 Alpha  occ. eigenvalues --   -0.61607  -0.61587  -0.61495  -0.61249  -0.61231
 Alpha  occ. eigenvalues --   -0.61183  -0.60418  -0.59475  -0.59448  -0.59440
 Alpha  occ. eigenvalues --   -0.59398  -0.59361  -0.58616  -0.58008  -0.57972
 Alpha  occ. eigenvalues --   -0.57892  -0.57052  -0.57027  -0.56998  -0.56285
 Alpha  occ. eigenvalues --   -0.56264  -0.56111  -0.55711  -0.54873  -0.54813
 Alpha  occ. eigenvalues --   -0.54769  -0.54512  -0.54240  -0.54115  -0.54105
 Alpha  occ. eigenvalues --   -0.54035  -0.53963  -0.53263  -0.53228  -0.53092
 Alpha  occ. eigenvalues --   -0.53052  -0.52912  -0.52737  -0.52705  -0.52654
 Alpha  occ. eigenvalues --   -0.52626  -0.52514  -0.52464  -0.52391  -0.51624
 Alpha  occ. eigenvalues --   -0.51609  -0.51363  -0.51332  -0.51301  -0.51252
 Alpha  occ. eigenvalues --   -0.51190  -0.51170  -0.50952  -0.50794  -0.50621
 Alpha  occ. eigenvalues --   -0.50597  -0.50593  -0.49930  -0.49911  -0.49303
 Alpha  occ. eigenvalues --   -0.49271  -0.49231  -0.49220  -0.49167  -0.49089
 Alpha  occ. eigenvalues --   -0.48904  -0.48083  -0.48035  -0.47923  -0.47625
 Alpha  occ. eigenvalues --   -0.47397  -0.47297  -0.47253  -0.47016  -0.46972
 Alpha  occ. eigenvalues --   -0.46880  -0.46587  -0.46581  -0.46496  -0.46207
 Alpha  occ. eigenvalues --   -0.46157  -0.46115  -0.45625  -0.45111  -0.44933
 Alpha  occ. eigenvalues --   -0.44895  -0.44208  -0.44156  -0.44042  -0.43502
 Alpha  occ. eigenvalues --   -0.43313  -0.43267  -0.43139  -0.43128  -0.43093
 Alpha  occ. eigenvalues --   -0.42750  -0.42727  -0.42691  -0.42614  -0.42602
 Alpha  occ. eigenvalues --   -0.42526  -0.42492  -0.42477  -0.42310  -0.42298
 Alpha  occ. eigenvalues --   -0.42276  -0.42047  -0.41922  -0.41878  -0.41863
 Alpha  occ. eigenvalues --   -0.41229  -0.41208  -0.41147  -0.41074  -0.40579
 Alpha  occ. eigenvalues --   -0.40564  -0.40555  -0.40363  -0.39456  -0.39446
 Alpha  occ. eigenvalues --   -0.37016  -0.32552  -0.29209  -0.25150  -0.25121
 Alpha  occ. eigenvalues --   -0.23481
 Alpha virt. eigenvalues --   -0.09378  -0.09173  -0.08408  -0.08358  -0.06947
 Alpha virt. eigenvalues --   -0.06929  -0.06851  -0.04389  -0.04109  -0.04058
 Alpha virt. eigenvalues --   -0.03729  -0.03499  -0.03444  -0.03229  -0.03101

 Mulliken charges:
               1
     1  Cl  -0.893019
     2  C   -0.082331
     3  C    0.049388
     4  C   -0.081359
     5  C   -0.034083
     6  C   -0.033289
     7  C   -0.049126
     8  H    0.029276
     9  H    0.029038
    10  H    0.040907
    11  H    0.036863
    12  H    0.039366
    13  C   -0.127260
    14  C    0.032081
    15  H    0.019784
    16  H    0.035040
    17  H    0.026429
    18  O   -0.662669
    19  O   -0.661116
    20  O   -0.655028
    21  O   -0.663188
    22  W    1.731272
    23  W    1.672975
    24  W    1.683514
    25  W    1.694233
    26  W    1.675111
    27  W    1.726347
    28  W    1.616275
    29  W    1.684724
    30  O   -0.320136
    31  O   -0.365809
    32  O   -0.367082
    33  O   -0.358596
    34  O   -0.662486
    35  O   -0.670168
    36  O   -0.660429
    37  O   -0.662732
    38  O   -0.367195
    39  O   -0.365261
    40  O   -0.298056
    41  O   -0.364854
    42  O   -0.669596
    43  O   -0.663181
    44  O   -0.658680
    45  O   -0.665550
    46  O   -0.367250
    47  O   -0.320367
    48  O   -0.360247
    49  O   -0.362964
    50  W    1.671123
    51  W    1.677464
    52  W    1.683130
    53  W    1.683770
    54  O   -0.724849
    55  O   -0.706617
    56  O   -0.724928
    57  O   -0.722872
    58  O   -0.704332
    59  O   -0.725491
    60  O   -0.724850
    61  O   -0.719583
    62  O   -0.724232
    63  O   -0.706121
    64  O   -0.725444
    65  O   -0.725547
    66  O   -0.801213
    67  O   -0.800488
    68  O   -0.797816
    69  O   -0.808609
    70  K    0.864496
    71  K    0.861979
    72  K    0.861508
    73  V    1.190008
 Sum of Mulliken charges =  -1.00000

 Dipole moment (field-independent basis, Debye):
    X=             50.1013    Y=            -51.2065    Z=            -38.9371  Tot=             81.5374
 Quadrupole moment (field-independent basis, Debye-Ang):
   XX=          -1040.8288   YY=           -887.7030   ZZ=           -919.7606
   XY=            446.4984   XZ=            448.8392   YZ=           -477.3617

 Normal termination of Gaussian 16 at Mon Jun  3 03:08:34 2024.
