 Gaussian 16, Revision C.01,
 Gaussian 16:  ES64L-G16RevC.01  3-Jul-2019

 ----------------------------------------------------------------------
 # def2svp wb97xd scrf=(smd,solvent=acetonitrile) g09default scf=(xqc,m
 axcycle=64) force guess=read nosymm
 ----------------------------------------------------------------------

 ----------
 Title Card
 ----------
 Symbolic Z-matrix:
 Charge = -1 Multiplicity = 1

                          Input orientation:
 ---------------------------------------------------------------------
 Center     Atomic      Atomic             Coordinates (Angstroms)
 Number     Number       Type             X           Y           Z
 ---------------------------------------------------------------------
      1         17           0       -9.663698    8.271175   10.535436
      2          6           0       -8.374556    4.278411   12.202533
      3          6           0       -9.174829    3.951736   11.091387
      4          6           0      -10.085871    2.887122   11.220724
      5          6           0      -10.208753    2.189262   12.418165
      6          6           0       -9.410362    2.528573   13.511472
      7          6           0       -8.491447    3.574139   13.396407
      8          1           0       -7.653916    5.096436   12.137676
      9          1           0      -10.715468    2.620556   10.367035
     10          1           0      -10.935494    1.377564   12.501340
     11          1           0       -9.494878    1.973699   14.448216
     12          1           0       -7.866694    3.850704   14.249343
     13          6           0       -9.127103    4.701079    9.834887
     14          6           0       -8.437535    5.841916    9.625698
     15          1           0       -9.739870    4.295391    9.021714
     16          1           0       -8.469842    6.348885    8.661146
     17          1           0       -7.771095    6.266835   10.376186
     18          8           0       -0.975315   -1.817592    7.456995
     19          8           0       -8.376731   -1.325022    7.461708
     20          8           0       -7.009416    1.336384   10.484474
     21          8           0       -2.330709   -4.397735   10.555045
     22         74           0       -3.382107    0.708690    6.499164
     23         74           0       -5.992870   -3.839480    6.568304
     24         74           0       -3.589002    0.877617   11.400427
     25         74           0       -5.768212   -3.885776   11.473511
     26         74           0       -2.442060   -2.587536    6.382817
     27         74           0       -6.911223   -0.543547    6.353080
     28         74           0       -6.790822   -0.263064   11.582741
     29         74           0       -2.553109   -2.743606   11.617938
     30          8           0       -3.141767    1.901836    5.330104
     31          8           0       -6.132275   -5.088773    5.425384
     32          8           0       -2.662610    1.717334   12.551516
     33          8           0       -6.681635   -4.695575   12.653696
     34          8           0       -2.661405   -0.911113    5.587526
     35          8           0       -6.692758   -2.277711    5.620904
     36          8           0       -5.281395    0.541832   12.359825
     37          8           0       -4.053966   -3.543250   12.408899
     38          8           0        0.336684   -0.057876    9.271114
     39          8           0       -9.693355   -3.020440    9.318009
     40          8           0       -6.364942    3.416974    8.672479
     41          8           0       -2.991079   -6.495421    8.745895
     42          8           0       -1.762131    0.734309    7.479342
     43          8           0       -7.597671   -3.882210    7.546936
     44          8           0       -4.480632    2.193760   10.423171
     45          8           0       -4.867779   -5.239951   10.523059
     46          8           0       -1.613995   -3.521859    5.228945
     47          8           0       -7.787033    0.261831    5.155544
     48          8           0       -8.005438   -0.161871   12.764878
     49          8           0       -1.324179   -2.868431   12.784544
     50         74           0       -1.226313   -0.567851    8.839476
     51         74           0       -8.130554   -2.522043    8.873806
     52         74           0       -5.883310    1.846290    9.047424
     53         74           0       -3.477949   -4.920630    9.160160
     54          8           0       -4.217228   -3.122409    6.067462
     55          8           0       -5.134039   -0.055937    6.017800
     56          8           0       -6.165485   -2.014994   11.922231
     57          8           0       -3.159911   -0.993170   11.915559
     58          8           0       -4.342328    1.580965    7.845016
     59          8           0       -5.006264   -4.699662    7.921603
     60          8           0       -2.296179    0.557499   10.074397
     61          8           0       -7.049720   -3.620751   10.133137
     62          8           0       -2.572246   -3.914730    7.858081
     63          8           0       -6.798800    0.788044    7.800540
     64          8           0       -7.812892   -1.180236   10.153528
     65          8           0       -1.540301   -1.885545   10.147130
     66          8           0       -3.346716   -1.164992    8.014579
     67          8           0       -6.006101   -1.967602    8.034502
     68          8           0       -5.101633   -0.216012    9.943359
     69          8           0       -4.235771   -2.854157    9.975772
     70         19           0       -3.220700   -6.142403    5.648652
     71         19           0       -0.128356    0.001664   12.316241
     72         19           0       -9.289007   -2.819001   12.408200
     73         23           0       -4.674627   -1.546957    8.989882
 ---------------------------------------------------------------------

 SCF Done:  E(UwB97XD) =  -7327.70209582     A.U. after   17 cycles

 Alpha  occ. eigenvalues --  -19.24657 -18.94029 -18.92956 -18.92890 -13.36493
 Alpha  occ. eigenvalues --  -13.36482 -13.36419 -10.69419 -10.69415 -10.69415
 Alpha  occ. eigenvalues --  -10.69411 -10.69406 -10.69401 -10.69347 -10.69343
 Alpha  occ. eigenvalues --  -10.69341 -10.33074 -10.32285 -10.32020 -10.31038
 Alpha  occ. eigenvalues --  -10.31027 -10.31020 -10.30590 -10.30545  -9.52423
 Alpha  occ. eigenvalues --   -7.27306  -7.26967  -7.26964  -3.21103  -3.21094
 Alpha  occ. eigenvalues --   -3.21068  -3.21042  -3.21026  -3.21016  -3.21005
 Alpha  occ. eigenvalues --   -3.20998  -3.20997  -3.20857  -3.20849  -3.20827
 Alpha  occ. eigenvalues --   -2.78765  -1.85347  -1.85290  -1.85281  -1.85250
 Alpha  occ. eigenvalues --   -1.85146  -1.85079  -1.85063  -1.85042  -1.85026
 Alpha  occ. eigenvalues --   -1.85019  -1.84999  -1.84948  -1.84394  -1.84281
 Alpha  occ. eigenvalues --   -1.84272  -1.84253  -1.84220  -1.84207  -1.84151
 Alpha  occ. eigenvalues --   -1.84133  -1.84106  -1.84098  -1.84067  -1.84059
 Alpha  occ. eigenvalues --   -1.83956  -1.83918  -1.83886  -1.83881  -1.83862
 Alpha  occ. eigenvalues --   -1.83828  -1.83801  -1.83792  -1.83786  -1.83690
 Alpha  occ. eigenvalues --   -1.83682  -1.83670  -1.81931  -1.81601  -1.81565
 Alpha  occ. eigenvalues --   -1.50196  -1.50190  -1.50131  -1.08621  -1.07000
 Alpha  occ. eigenvalues --   -1.06958  -1.06919  -1.06014  -1.06006  -1.05983
 Alpha  occ. eigenvalues --   -1.04586  -1.04575  -1.04569  -1.03974  -1.03969
 Alpha  occ. eigenvalues --   -1.03702  -1.03365  -1.03334  -1.03313  -1.03050
 Alpha  occ. eigenvalues --   -1.03032  -1.02264  -1.02234  -1.02229  -1.02110
 Alpha  occ. eigenvalues --   -1.02028  -1.02003  -1.01918  -1.01909  -1.01797
 Alpha  occ. eigenvalues --   -1.01774  -1.01757  -1.01622  -1.01586  -1.01578
 Alpha  occ. eigenvalues --   -1.01316  -1.00823  -1.00785  -1.00729  -1.00726
 Alpha  occ. eigenvalues --   -0.99995  -0.99940  -0.99879  -0.96235  -0.89354
 Alpha  occ. eigenvalues --   -0.85641  -0.85639  -0.85586  -0.85497  -0.85485
 Alpha  occ. eigenvalues --   -0.85484  -0.85454  -0.85428  -0.85415  -0.84313
 Alpha  occ. eigenvalues --   -0.82505  -0.80954  -0.71961  -0.69651  -0.65117
 Alpha  occ. eigenvalues --   -0.62324  -0.61713  -0.61653  -0.61626  -0.60668
 Alpha  occ. eigenvalues --   -0.58984  -0.58960  -0.58950  -0.58895  -0.58821
 Alpha  occ. eigenvalues --   -0.58774  -0.58746  -0.58710  -0.58554  -0.57370
 Alpha  occ. eigenvalues --   -0.57331  -0.57299  -0.57015  -0.56815  -0.56501
 Alpha  occ. eigenvalues --   -0.56453  -0.56415  -0.56018  -0.55867  -0.55367
 Alpha  occ. eigenvalues --   -0.55357  -0.55318  -0.54433  -0.54186  -0.54157
 Alpha  occ. eigenvalues --   -0.54000  -0.53687  -0.53630  -0.53623  -0.52789
 Alpha  occ. eigenvalues --   -0.52663  -0.52613  -0.52501  -0.52464  -0.51494
 Alpha  occ. eigenvalues --   -0.51485  -0.51469  -0.51387  -0.51327  -0.50825
 Alpha  occ. eigenvalues --   -0.50576  -0.50541  -0.50491  -0.50409  -0.50345
 Alpha  occ. eigenvalues --   -0.50287  -0.50090  -0.50047  -0.50023  -0.49773
 Alpha  occ. eigenvalues --   -0.49678  -0.49647  -0.49516  -0.49499  -0.49298
 Alpha  occ. eigenvalues --   -0.49255  -0.49204  -0.49121  -0.49070  -0.48992
 Alpha  occ. eigenvalues --   -0.48729  -0.48564  -0.48543  -0.48483  -0.47707
 Alpha  occ. eigenvalues --   -0.47685  -0.47221  -0.46487  -0.46052  -0.46034
 Alpha  occ. eigenvalues --   -0.45886  -0.45876  -0.45763  -0.45638  -0.45228
 Alpha  occ. eigenvalues --   -0.45151  -0.45145  -0.44841  -0.44646  -0.44503
 Alpha  occ. eigenvalues --   -0.44484  -0.44466  -0.44295  -0.44260  -0.44241
 Alpha  occ. eigenvalues --   -0.43434  -0.43168  -0.42562  -0.42534  -0.42464
 Alpha  occ. eigenvalues --   -0.42326  -0.42212  -0.42176  -0.42167  -0.41641
 Alpha  occ. eigenvalues --   -0.41627  -0.41584  -0.41046  -0.41000  -0.40796
 Alpha  occ. eigenvalues --   -0.40782  -0.40768  -0.40420  -0.40404  -0.40366
 Alpha  occ. eigenvalues --   -0.40228  -0.40200  -0.40185  -0.40143  -0.39882
 Alpha  occ. eigenvalues --   -0.39362  -0.39277  -0.39250  -0.39159  -0.39055
 Alpha  occ. eigenvalues --   -0.38950  -0.38919  -0.38831  -0.38759  -0.38714
 Alpha  occ. eigenvalues --   -0.38331  -0.38309  -0.38273  -0.38112  -0.37219
 Alpha  occ. eigenvalues --   -0.37198  -0.34660  -0.34623  -0.33695  -0.30484
 Alpha  occ. eigenvalues --   -0.25727
 Alpha virt. eigenvalues --   -0.11957  -0.06281  -0.06230  -0.04795  -0.04759
 Alpha virt. eigenvalues --   -0.04670  -0.01528  -0.01412  -0.01364  -0.01115
 Alpha virt. eigenvalues --   -0.00928  -0.00901  -0.00864  -0.00165  -0.00092

  Beta  occ. eigenvalues -- -197.10763-129.99084-129.99082-129.99015-101.62412
  Beta  occ. eigenvalues --  -22.43192 -19.28529 -19.28515 -19.28457 -19.28446
  Beta  occ. eigenvalues --  -19.28401 -19.28383 -19.28370 -19.28357 -19.28343
  Beta  occ. eigenvalues --  -19.28279 -19.28244 -19.28168 -19.26965 -19.26948
  Beta  occ. eigenvalues --  -19.26936 -19.26892 -19.26891 -19.26885 -19.26862
  Beta  occ. eigenvalues --  -19.26859 -19.26846 -19.26845 -19.26832 -19.26830
  Beta  occ. eigenvalues --  -19.26826 -19.26824 -19.26810 -19.26805 -19.26801
  Beta  occ. eigenvalues --  -19.26784 -19.26780 -19.26779 -19.26770 -19.26726
  Beta  occ. eigenvalues --  -19.26675 -19.26653 -19.24717 -19.24682 -19.24649
  Beta  occ. eigenvalues --  -19.24631 -18.93683 -18.91525 -18.91396 -13.36493
  Beta  occ. eigenvalues --  -13.36482 -13.36419 -10.69419 -10.69415 -10.69415
  Beta  occ. eigenvalues --  -10.69411 -10.69406 -10.69401 -10.69347 -10.69343
  Beta  occ. eigenvalues --  -10.69341 -10.33362 -10.32400 -10.31967 -10.31154
  Beta  occ. eigenvalues --  -10.31144 -10.31124 -10.30530 -10.30485  -9.52869
  Beta  occ. eigenvalues --   -7.28705  -7.27272  -7.27269  -3.21100  -3.21090
  Beta  occ. eigenvalues --   -3.21068  -3.21036  -3.21025  -3.21010  -3.20999
  Beta  occ. eigenvalues --   -3.20992  -3.20991  -3.20856  -3.20844  -3.20822
  Beta  occ. eigenvalues --   -2.74704  -1.85341  -1.85285  -1.85275  -1.85242
  Beta  occ. eigenvalues --   -1.85141  -1.85073  -1.85058  -1.85035  -1.85018
  Beta  occ. eigenvalues --   -1.85010  -1.84994  -1.84940  -1.84392  -1.84279
  Beta  occ. eigenvalues --   -1.84269  -1.84251  -1.84217  -1.84204  -1.84148
  Beta  occ. eigenvalues --   -1.84131  -1.84103  -1.84095  -1.84064  -1.84056
  Beta  occ. eigenvalues --   -1.83953  -1.83914  -1.83883  -1.83878  -1.83859
  Beta  occ. eigenvalues --   -1.83826  -1.83799  -1.83790  -1.83782  -1.83688
  Beta  occ. eigenvalues --   -1.83679  -1.83667  -1.80592  -1.75978  -1.75696
  Beta  occ. eigenvalues --   -1.50196  -1.50190  -1.50131  -1.08604  -1.06979
  Beta  occ. eigenvalues --   -1.06938  -1.06893  -1.06013  -1.06004  -1.05981
  Beta  occ. eigenvalues --   -1.04587  -1.04576  -1.04568  -1.03974  -1.03970
  Beta  occ. eigenvalues --   -1.03635  -1.03332  -1.03296  -1.03283  -1.03048
  Beta  occ. eigenvalues --   -1.03024  -1.02246  -1.02213  -1.02207  -1.02101
  Beta  occ. eigenvalues --   -1.02023  -1.01990  -1.01913  -1.01895  -1.01792
  Beta  occ. eigenvalues --   -1.01772  -1.01753  -1.01618  -1.01584  -1.01563
  Beta  occ. eigenvalues --   -1.01316  -1.00796  -1.00770  -1.00729  -1.00725
  Beta  occ. eigenvalues --   -0.99858  -0.99800  -0.99757  -0.96470  -0.90039
  Beta  occ. eigenvalues --   -0.85641  -0.85638  -0.85586  -0.85497  -0.85485
  Beta  occ. eigenvalues --   -0.85484  -0.85454  -0.85428  -0.85415  -0.84576
  Beta  occ. eigenvalues --   -0.84371  -0.82711  -0.72223  -0.69776  -0.65371
  Beta  occ. eigenvalues --   -0.62323  -0.61713  -0.61653  -0.61626  -0.60882
  Beta  occ. eigenvalues --   -0.58979  -0.58958  -0.58949  -0.58805  -0.58774
  Beta  occ. eigenvalues --   -0.58743  -0.58732  -0.58683  -0.58554  -0.57339
  Beta  occ. eigenvalues --   -0.57184  -0.57131  -0.57039  -0.56928  -0.56502
  Beta  occ. eigenvalues --   -0.56422  -0.56378  -0.55822  -0.55611  -0.55346
  Beta  occ. eigenvalues --   -0.55337  -0.55321  -0.54637  -0.54178  -0.54148
  Beta  occ. eigenvalues --   -0.53987  -0.53655  -0.53611  -0.53574  -0.52859
  Beta  occ. eigenvalues --   -0.52664  -0.52599  -0.52481  -0.52459  -0.51482
  Beta  occ. eigenvalues --   -0.51458  -0.51449  -0.51327  -0.51265  -0.51028
  Beta  occ. eigenvalues --   -0.50568  -0.50476  -0.50470  -0.50343  -0.50249
  Beta  occ. eigenvalues --   -0.50183  -0.50057  -0.50046  -0.49989  -0.49722
  Beta  occ. eigenvalues --   -0.49656  -0.49614  -0.49507  -0.49489  -0.49297
  Beta  occ. eigenvalues --   -0.49232  -0.49203  -0.49089  -0.49052  -0.48969
  Beta  occ. eigenvalues --   -0.48722  -0.48562  -0.48542  -0.48477  -0.47905
  Beta  occ. eigenvalues --   -0.47667  -0.47621  -0.46064  -0.45910  -0.45880
  Beta  occ. eigenvalues --   -0.45815  -0.45680  -0.45578  -0.45228  -0.45169
  Beta  occ. eigenvalues --   -0.45152  -0.45058  -0.44840  -0.44645  -0.44477
  Beta  occ. eigenvalues --   -0.44456  -0.44437  -0.44283  -0.44231  -0.44206
  Beta  occ. eigenvalues --   -0.43428  -0.43275  -0.42514  -0.42474  -0.42431
  Beta  occ. eigenvalues --   -0.42303  -0.42253  -0.42139  -0.42129  -0.41640
  Beta  occ. eigenvalues --   -0.41613  -0.41564  -0.41436  -0.41051  -0.40963
  Beta  occ. eigenvalues --   -0.40770  -0.40732  -0.40705  -0.40406  -0.40392
  Beta  occ. eigenvalues --   -0.40351  -0.40183  -0.40171  -0.40156  -0.39825
  Beta  occ. eigenvalues --   -0.39653  -0.39361  -0.39182  -0.39115  -0.39111
  Beta  occ. eigenvalues --   -0.38925  -0.38888  -0.38835  -0.38742  -0.38707
  Beta  occ. eigenvalues --   -0.38665  -0.38325  -0.38302  -0.38267  -0.37620
  Beta  occ. eigenvalues --   -0.37220  -0.37193  -0.35587  -0.35545  -0.33986
  Beta  occ. eigenvalues --   -0.30873
  Beta virt. eigenvalues --   -0.06280  -0.06230  -0.04794  -0.04758  -0.04669
  Beta virt. eigenvalues --   -0.01524  -0.01407  -0.01358  -0.01109  -0.00923
  Beta virt. eigenvalues --   -0.00897  -0.00859  -0.00155  -0.00081  -0.00047

 Mulliken charges and spin densities:
               1          2
     1  Cl  -0.355117  -0.600193
     2  C   -0.035973  -0.098928
     3  C    0.011742   0.060209
     4  C   -0.035112  -0.094590
     5  C   -0.031926   0.060116
     6  C    0.009126  -0.118608
     7  C   -0.047276   0.060435
     8  H    0.050271   0.004271
     9  H    0.051119   0.004052
    10  H    0.056272  -0.002145
    11  H    0.057545   0.005198
    12  H    0.054427  -0.002120
    13  C    0.006389  -0.269449
    14  C   -0.039294  -0.017072
    15  H    0.076705   0.011010
    16  H    0.094854   0.000966
    17  H    0.089697  -0.001636
    18  O   -0.671571  -0.000563
    19  O   -0.669946  -0.000523
    20  O   -0.665977  -0.001519
    21  O   -0.672172  -0.000541
    22  W    1.714461   0.000353
    23  W    1.658604   0.000482
    24  W    1.670896   0.000162
    25  W    1.680045   0.000221
    26  W    1.661388   0.002719
    27  W    1.708460   0.002449
    28  W    1.608231   0.003326
    29  W    1.670362   0.002803
    30  O   -0.350028  -0.000524
    31  O   -0.394187  -0.000569
    32  O   -0.395610  -0.000615
    33  O   -0.387395  -0.000567
    34  O   -0.670855  -0.000288
    35  O   -0.677547  -0.000022
    36  O   -0.669398  -0.000129
    37  O   -0.671668  -0.000193
    38  O   -0.397118   0.002122
    39  O   -0.395451   0.002167
    40  O   -0.340816   0.000420
    41  O   -0.394996   0.002149
    42  O   -0.677149   0.000047
    43  O   -0.671786   0.000150
    44  O   -0.667311   0.000267
    45  O   -0.673870   0.000095
    46  O   -0.397212   0.002276
    47  O   -0.352076   0.002140
    48  O   -0.393669   0.001781
    49  O   -0.393128   0.002295
    50  W    1.657193   0.002842
    51  W    1.663050   0.002742
    52  W    1.676330   0.003907
    53  W    1.669041   0.002692
    54  O   -0.722777   0.000098
    55  O   -0.704821   0.000006
    56  O   -0.721779   0.000139
    57  O   -0.720739   0.000068
    58  O   -0.702175   0.000078
    59  O   -0.722847   0.000159
    60  O   -0.722462   0.000213
    61  O   -0.717282   0.000201
    62  O   -0.722618  -0.000181
    63  O   -0.704814  -0.000056
    64  O   -0.724535  -0.000195
    65  O   -0.723755  -0.000200
    66  O   -0.883443   0.005280
    67  O   -0.883570   0.007296
    68  O   -0.880869   0.007256
    69  O   -0.888412   0.006556
    70  K    0.850838   0.000194
    71  K    0.848171   0.000221
    72  K    0.847657   0.000217
    73  V    1.199659   0.936575
 Sum of Mulliken charges =  -1.00000   0.00000

 Dipole moment (field-independent basis, Debye):
    X=             27.8712    Y=            -13.7863    Z=            -30.8191  Tot=             43.7799
 Quadrupole moment (field-independent basis, Debye-Ang):
   XX=           -757.3574   YY=           -711.6239   ZZ=           -784.3651
   XY=            127.0875   XZ=            172.5296   YZ=            -93.9200

 Normal termination of Gaussian 16 at Mon Jun  3 02:57:35 2024.
