 Gaussian 16, Revision C.01,
 Gaussian 16:  ES64L-G16RevC.01  3-Jul-2019

 ----------------------------------------------------------------------
 # def2svp wb97xd scrf=(smd,solvent=acetonitrile) g09default scf=(xqc,m
 axcycle=64) force guess=read nosymm
 ----------------------------------------------------------------------

 ----------
 Title Card
 ----------
 Symbolic Z-matrix:
 Charge = -1 Multiplicity = 1

                          Input orientation:
 ---------------------------------------------------------------------
 Center     Atomic      Atomic             Coordinates (Angstroms)
 Number     Number       Type             X           Y           Z
 ---------------------------------------------------------------------
      1         17           0       -9.669827    8.272571   10.535698
      2          6           0       -8.378542    4.281829   12.201433
      3          6           0       -9.180386    3.955318   11.091225
      4          6           0      -10.090285    2.889808   11.221714
      5          6           0      -10.209019    2.189947   12.418380
      6          6           0       -9.407570    2.527905   13.510041
      7          6           0       -8.491136    3.575580   13.394310
      8          1           0       -7.660272    5.101896   12.136501
      9          1           0      -10.722443    2.623722   10.369637
     10          1           0      -10.935161    1.377798   12.502778
     11          1           0       -9.487865    1.970680   14.445688
     12          1           0       -7.865115    3.852635   14.246218
     13          6           0       -9.133844    4.706039    9.835438
     14          6           0       -8.438870    5.843589    9.625592
     15          1           0       -9.751477    4.304670    9.023767
     16          1           0       -8.470698    6.352225    8.661965
     17          1           0       -7.766711    6.262830   10.374356
     18          8           0       -0.975184   -1.819530    7.455959
     19          8           0       -8.375687   -1.323976    7.461444
     20          8           0       -7.008517    1.334951   10.485952
     21          8           0       -2.329766   -4.397726   10.555089
     22         74           0       -3.379985    0.710479    6.501768
     23         74           0       -5.993710   -3.841711    6.569997
     24         74           0       -3.586513    0.878665   11.398654
     25         74           0       -5.768940   -3.888202   11.471830
     26         74           0       -2.443659   -2.587311    6.380174
     27         74           0       -6.908327   -0.544472    6.351204
     28         74           0       -6.787800   -0.264562   11.585421
     29         74           0       -2.554223   -2.743780   11.619777
     30          8           0       -3.138584    1.905006    5.334006
     31          8           0       -6.134064   -5.090888    5.427286
     32          8           0       -2.660358    1.718822   12.549568
     33          8           0       -6.681617   -4.699336   12.651689
     34          8           0       -2.661117   -0.910217    5.587369
     35          8           0       -6.691761   -2.278706    5.621045
     36          8           0       -5.278702    0.540874   12.360293
     37          8           0       -4.054454   -3.544353   12.408834
     38          8           0        0.339223   -0.063054    9.270280
     39          8           0       -9.694209   -3.016841    9.317635
     40          8           0       -6.367848    3.415515    8.673888
     41          8           0       -2.987828   -6.495164    8.746150
     42          8           0       -1.760343    0.733377    7.480614
     43          8           0       -7.598020   -3.881948    7.547906
     44          8           0       -4.479942    2.193637   10.423014
     45          8           0       -4.866883   -5.240627   10.521747
     46          8           0       -1.616191   -3.521151    5.225919
     47          8           0       -7.783860    0.260447    5.153313
     48          8           0       -8.001971   -0.162457   12.768012
     49          8           0       -1.325434   -2.869222   12.786450
     50         74           0       -1.224321   -0.571778    8.839296
     51         74           0       -8.130801   -2.519327    8.873943
     52         74           0       -5.884941    1.844773    9.048185
     53         74           0       -3.475109   -4.920632    9.159734
     54          8           0       -4.217893   -3.123080    6.066738
     55          8           0       -5.132261   -0.055091    6.017667
     56          8           0       -6.165140   -2.016905   11.923244
     57          8           0       -3.158410   -0.993263   11.916071
     58          8           0       -4.341710    1.581205    7.846229
     59          8           0       -5.005450   -4.701167    7.921167
     60          8           0       -2.293945    0.556562   10.074268
     61          8           0       -7.050652   -3.621293   10.133264
     62          8           0       -2.571891   -3.915147    7.856755
     63          8           0       -6.798071    0.787326    7.800378
     64          8           0       -7.811948   -1.180193   10.154850
     65          8           0       -1.539299   -1.886940   10.147818
     66          8           0       -3.346014   -1.165512    8.014531
     67          8           0       -6.005410   -1.967976    8.034685
     68          8           0       -5.100398   -0.216696    9.943768
     69          8           0       -4.235237   -2.854609    9.975660
     70         19           0       -3.221572   -6.143866    5.648650
     71         19           0       -0.128602   -0.003957   12.316079
     72         19           0       -9.290336   -2.819107   12.405984
     73         23           0       -4.673872   -1.547321    8.989887
 ---------------------------------------------------------------------

 SCF Done:  E(RwB97XD) =  -7327.70215984     A.U. after   12 cycles

 Alpha  occ. eigenvalues -- -197.29330-130.00114-130.00023-130.00011-101.48370
 Alpha  occ. eigenvalues --  -22.62467 -19.33607 -19.33605 -19.33601 -19.33577
 Alpha  occ. eigenvalues --  -19.30735 -19.30699 -19.30695 -19.30691 -19.30671
 Alpha  occ. eigenvalues --  -19.30670 -19.30666 -19.30641 -19.30587 -19.30368
 Alpha  occ. eigenvalues --  -19.30351 -19.30171 -19.29354 -19.29348 -19.29332
 Alpha  occ. eigenvalues --  -19.29321 -19.29316 -19.29296 -19.29293 -19.29267
 Alpha  occ. eigenvalues --  -19.29230 -19.29205 -19.29200 -19.29184 -19.29175
 Alpha  occ. eigenvalues --  -19.29147 -19.29120 -19.29114 -19.29109 -19.29108
 Alpha  occ. eigenvalues --  -19.29097 -19.29078 -19.29032 -19.28993 -19.28979
 Alpha  occ. eigenvalues --  -19.28890 -19.11422 -19.11414 -19.11405 -13.37516
 Alpha  occ. eigenvalues --  -13.37416 -13.37408 -10.70446 -10.70439 -10.70438
 Alpha  occ. eigenvalues --  -10.70347 -10.70341 -10.70338 -10.70335 -10.70331
 Alpha  occ. eigenvalues --  -10.70330 -10.29843 -10.29313 -10.29287 -10.29031
 Alpha  occ. eigenvalues --  -10.28953 -10.28910 -10.28136 -10.27428  -9.38844
 Alpha  occ. eigenvalues --   -7.13673  -7.13618  -7.13614  -3.23312  -3.23309
 Alpha  occ. eigenvalues --   -3.23295  -3.23289  -3.23284  -3.23247  -3.23247
 Alpha  occ. eigenvalues --   -3.23244  -3.23224  -3.22964  -3.22945  -3.22766
 Alpha  occ. eigenvalues --   -2.91745  -1.94134  -1.94105  -1.94094  -1.87717
 Alpha  occ. eigenvalues --   -1.87669  -1.87656  -1.87620  -1.87491  -1.87469
 Alpha  occ. eigenvalues --   -1.87467  -1.87449  -1.87427  -1.87272  -1.87243
 Alpha  occ. eigenvalues --   -1.87088  -1.86629  -1.86511  -1.86501  -1.86484
 Alpha  occ. eigenvalues --   -1.86455  -1.86433  -1.86347  -1.86324  -1.86311
 Alpha  occ. eigenvalues --   -1.86297  -1.86281  -1.86263  -1.86145  -1.86134
 Alpha  occ. eigenvalues --   -1.86121  -1.86109  -1.86039  -1.86023  -1.85991
 Alpha  occ. eigenvalues --   -1.85918  -1.85898  -1.85801  -1.85716  -1.85662
 Alpha  occ. eigenvalues --   -1.51206  -1.51110  -1.51106  -1.13025  -1.11250
 Alpha  occ. eigenvalues --   -1.11167  -1.11166  -1.08968  -1.08535  -1.08501
 Alpha  occ. eigenvalues --   -1.08321  -1.07560  -1.07492  -1.07488  -1.06905
 Alpha  occ. eigenvalues --   -1.06893  -1.06875  -1.06312  -1.06286  -1.05349
 Alpha  occ. eigenvalues --   -1.05341  -1.04984  -1.04978  -1.04961  -1.04224
 Alpha  occ. eigenvalues --   -1.04220  -1.04190  -1.04047  -1.04017  -1.04004
 Alpha  occ. eigenvalues --   -1.03947  -1.03927  -1.03900  -1.03769  -1.03755
 Alpha  occ. eigenvalues --   -1.03623  -1.03572  -1.03307  -1.03277  -1.03146
 Alpha  occ. eigenvalues --   -1.03133  -1.03067  -1.02983  -0.94356  -0.86672
 Alpha  occ. eigenvalues --   -0.86586  -0.86585  -0.86497  -0.86482  -0.86480
 Alpha  occ. eigenvalues --   -0.86401  -0.86390  -0.86379  -0.86365  -0.82802
 Alpha  occ. eigenvalues --   -0.79707  -0.71618  -0.69645  -0.67979  -0.64601
 Alpha  occ. eigenvalues --   -0.63973  -0.63905  -0.63884  -0.63283  -0.63264
 Alpha  occ. eigenvalues --   -0.63153  -0.62926  -0.62660  -0.62599  -0.61954
 Alpha  occ. eigenvalues --   -0.61605  -0.61584  -0.61492  -0.61246  -0.61227
 Alpha  occ. eigenvalues --   -0.61181  -0.60418  -0.59473  -0.59446  -0.59437
 Alpha  occ. eigenvalues --   -0.59394  -0.59359  -0.58625  -0.58008  -0.57972
 Alpha  occ. eigenvalues --   -0.57892  -0.57051  -0.57027  -0.56998  -0.56282
 Alpha  occ. eigenvalues --   -0.56261  -0.56109  -0.55711  -0.54874  -0.54814
 Alpha  occ. eigenvalues --   -0.54769  -0.54514  -0.54240  -0.54115  -0.54104
 Alpha  occ. eigenvalues --   -0.54035  -0.53963  -0.53265  -0.53230  -0.53093
 Alpha  occ. eigenvalues --   -0.53051  -0.52913  -0.52738  -0.52708  -0.52656
 Alpha  occ. eigenvalues --   -0.52627  -0.52514  -0.52463  -0.52391  -0.51625
 Alpha  occ. eigenvalues --   -0.51610  -0.51369  -0.51335  -0.51304  -0.51255
 Alpha  occ. eigenvalues --   -0.51193  -0.51170  -0.50954  -0.50797  -0.50622
 Alpha  occ. eigenvalues --   -0.50598  -0.50593  -0.49936  -0.49916  -0.49303
 Alpha  occ. eigenvalues --   -0.49270  -0.49231  -0.49219  -0.49168  -0.49091
 Alpha  occ. eigenvalues --   -0.48904  -0.48083  -0.48037  -0.47922  -0.47626
 Alpha  occ. eigenvalues --   -0.47398  -0.47296  -0.47253  -0.47021  -0.46973
 Alpha  occ. eigenvalues --   -0.46888  -0.46596  -0.46592  -0.46492  -0.46210
 Alpha  occ. eigenvalues --   -0.46158  -0.46117  -0.45632  -0.45111  -0.44934
 Alpha  occ. eigenvalues --   -0.44897  -0.44207  -0.44157  -0.44042  -0.43508
 Alpha  occ. eigenvalues --   -0.43317  -0.43271  -0.43141  -0.43130  -0.43095
 Alpha  occ. eigenvalues --   -0.42756  -0.42732  -0.42696  -0.42617  -0.42604
 Alpha  occ. eigenvalues --   -0.42530  -0.42494  -0.42481  -0.42311  -0.42301
 Alpha  occ. eigenvalues --   -0.42277  -0.42050  -0.41922  -0.41878  -0.41865
 Alpha  occ. eigenvalues --   -0.41237  -0.41216  -0.41156  -0.41081  -0.40584
 Alpha  occ. eigenvalues --   -0.40569  -0.40560  -0.40357  -0.39458  -0.39446
 Alpha  occ. eigenvalues --   -0.37023  -0.32556  -0.29211  -0.25142  -0.25113
 Alpha  occ. eigenvalues --   -0.23474
 Alpha virt. eigenvalues --   -0.09373  -0.09169  -0.08390  -0.08341  -0.06933
 Alpha virt. eigenvalues --   -0.06913  -0.06835  -0.04384  -0.04105  -0.04054
 Alpha virt. eigenvalues --   -0.03729  -0.03500  -0.03444  -0.03228  -0.03094

 Mulliken charges:
               1
     1  Cl  -0.893569
     2  C   -0.082392
     3  C    0.049166
     4  C   -0.081513
     5  C   -0.034199
     6  C   -0.033208
     7  C   -0.049056
     8  H    0.029151
     9  H    0.029107
    10  H    0.040953
    11  H    0.036910
    12  H    0.039366
    13  C   -0.127453
    14  C    0.032848
    15  H    0.019690
    16  H    0.035072
    17  H    0.026839
    18  O   -0.662437
    19  O   -0.660770
    20  O   -0.654933
    21  O   -0.662995
    22  W    1.730790
    23  W    1.672243
    24  W    1.682914
    25  W    1.693717
    26  W    1.674556
    27  W    1.725947
    28  W    1.615727
    29  W    1.684039
    30  O   -0.320338
    31  O   -0.365670
    32  O   -0.366908
    33  O   -0.358446
    34  O   -0.662250
    35  O   -0.670018
    36  O   -0.660185
    37  O   -0.662480
    38  O   -0.367085
    39  O   -0.365519
    40  O   -0.298371
    41  O   -0.364634
    42  O   -0.669401
    43  O   -0.662964
    44  O   -0.658370
    45  O   -0.665463
    46  O   -0.366963
    47  O   -0.320277
    48  O   -0.360160
    49  O   -0.363131
    50  W    1.670560
    51  W    1.676791
    52  W    1.682903
    53  W    1.683146
    54  O   -0.724511
    55  O   -0.706279
    56  O   -0.724676
    57  O   -0.722595
    58  O   -0.703997
    59  O   -0.725215
    60  O   -0.724528
    61  O   -0.719255
    62  O   -0.723982
    63  O   -0.705808
    64  O   -0.725220
    65  O   -0.725339
    66  O   -0.801063
    67  O   -0.800333
    68  O   -0.797746
    69  O   -0.808310
    70  K    0.864702
    71  K    0.861979
    72  K    0.861643
    73  V    1.189256
 Sum of Mulliken charges =  -1.00000

 Dipole moment (field-independent basis, Debye):
    X=             50.1164    Y=            -51.2578    Z=            -38.9613  Tot=             81.5905
 Quadrupole moment (field-independent basis, Debye-Ang):
   XX=          -1041.3009   YY=           -887.7438   ZZ=           -920.2567
   XY=            446.9598   XZ=            449.1579   YZ=           -477.8485

 Normal termination of Gaussian 16 at Mon Jun  3 03:36:48 2024.
