 Gaussian 16, Revision C.01,
 Gaussian 16:  ES64L-G16RevC.01  3-Jul-2019

 ----------------------------------------------------------------------
 # def2svp wb97xd scrf=(smd,solvent=acetonitrile) g09default scf=(xqc,m
 axcycle=64) force guess=read nosymm
 ----------------------------------------------------------------------

 ----------
 Title Card
 ----------
 Symbolic Z-matrix:
 Charge = -1 Multiplicity = 1

                          Input orientation:
 ---------------------------------------------------------------------
 Center     Atomic      Atomic             Coordinates (Angstroms)
 Number     Number       Type             X           Y           Z
 ---------------------------------------------------------------------
      1         17           0       -9.669827    8.272571   10.535698
      2          6           0       -8.378542    4.281829   12.201433
      3          6           0       -9.180386    3.955318   11.091225
      4          6           0      -10.090285    2.889808   11.221714
      5          6           0      -10.209019    2.189947   12.418380
      6          6           0       -9.407570    2.527905   13.510041
      7          6           0       -8.491136    3.575580   13.394310
      8          1           0       -7.660272    5.101896   12.136501
      9          1           0      -10.722443    2.623722   10.369637
     10          1           0      -10.935161    1.377798   12.502778
     11          1           0       -9.487865    1.970680   14.445688
     12          1           0       -7.865115    3.852635   14.246218
     13          6           0       -9.133844    4.706039    9.835438
     14          6           0       -8.438870    5.843589    9.625592
     15          1           0       -9.751477    4.304670    9.023767
     16          1           0       -8.470698    6.352225    8.661965
     17          1           0       -7.766711    6.262830   10.374356
     18          8           0       -0.975184   -1.819530    7.455959
     19          8           0       -8.375687   -1.323976    7.461444
     20          8           0       -7.008517    1.334951   10.485952
     21          8           0       -2.329766   -4.397726   10.555089
     22         74           0       -3.379985    0.710479    6.501768
     23         74           0       -5.993710   -3.841711    6.569997
     24         74           0       -3.586513    0.878665   11.398654
     25         74           0       -5.768940   -3.888202   11.471830
     26         74           0       -2.443659   -2.587311    6.380174
     27         74           0       -6.908327   -0.544472    6.351204
     28         74           0       -6.787800   -0.264562   11.585421
     29         74           0       -2.554223   -2.743780   11.619777
     30          8           0       -3.138584    1.905006    5.334006
     31          8           0       -6.134064   -5.090888    5.427286
     32          8           0       -2.660358    1.718822   12.549568
     33          8           0       -6.681617   -4.699336   12.651689
     34          8           0       -2.661117   -0.910217    5.587369
     35          8           0       -6.691761   -2.278706    5.621045
     36          8           0       -5.278702    0.540874   12.360293
     37          8           0       -4.054454   -3.544353   12.408834
     38          8           0        0.339223   -0.063054    9.270280
     39          8           0       -9.694209   -3.016841    9.317635
     40          8           0       -6.367848    3.415515    8.673888
     41          8           0       -2.987828   -6.495164    8.746150
     42          8           0       -1.760343    0.733377    7.480614
     43          8           0       -7.598020   -3.881948    7.547906
     44          8           0       -4.479942    2.193637   10.423014
     45          8           0       -4.866883   -5.240627   10.521747
     46          8           0       -1.616191   -3.521151    5.225919
     47          8           0       -7.783860    0.260447    5.153313
     48          8           0       -8.001971   -0.162457   12.768012
     49          8           0       -1.325434   -2.869222   12.786450
     50         74           0       -1.224321   -0.571778    8.839296
     51         74           0       -8.130801   -2.519327    8.873943
     52         74           0       -5.884941    1.844773    9.048185
     53         74           0       -3.475109   -4.920632    9.159734
     54          8           0       -4.217893   -3.123080    6.066738
     55          8           0       -5.132261   -0.055091    6.017667
     56          8           0       -6.165140   -2.016905   11.923244
     57          8           0       -3.158410   -0.993263   11.916071
     58          8           0       -4.341710    1.581205    7.846229
     59          8           0       -5.005450   -4.701167    7.921167
     60          8           0       -2.293945    0.556562   10.074268
     61          8           0       -7.050652   -3.621293   10.133264
     62          8           0       -2.571891   -3.915147    7.856755
     63          8           0       -6.798071    0.787326    7.800378
     64          8           0       -7.811948   -1.180193   10.154850
     65          8           0       -1.539299   -1.886940   10.147818
     66          8           0       -3.346014   -1.165512    8.014531
     67          8           0       -6.005410   -1.967976    8.034685
     68          8           0       -5.100398   -0.216696    9.943768
     69          8           0       -4.235237   -2.854609    9.975660
     70         19           0       -3.221572   -6.143866    5.648650
     71         19           0       -0.128602   -0.003957   12.316079
     72         19           0       -9.290336   -2.819107   12.405984
     73         23           0       -4.673872   -1.547321    8.989887
 ---------------------------------------------------------------------

 SCF Done:  E(UwB97XD) =  -7327.70212115     A.U. after   21 cycles

 Alpha  occ. eigenvalues --  -19.24656 -18.94020 -18.92947 -18.92881 -13.36498
 Alpha  occ. eigenvalues --  -13.36485 -13.36413 -10.69424 -10.69420 -10.69420
 Alpha  occ. eigenvalues --  -10.69414 -10.69410 -10.69405 -10.69341 -10.69337
 Alpha  occ. eigenvalues --  -10.69335 -10.33081 -10.32298 -10.32026 -10.31037
 Alpha  occ. eigenvalues --  -10.31030 -10.31026 -10.30590 -10.30549  -9.52418
 Alpha  occ. eigenvalues --   -7.27301  -7.26962  -7.26959  -3.21101  -3.21092
 Alpha  occ. eigenvalues --   -3.21066  -3.21038  -3.21023  -3.21014  -3.21002
 Alpha  occ. eigenvalues --   -3.20995  -3.20993  -3.20854  -3.20846  -3.20825
 Alpha  occ. eigenvalues --   -2.78759  -1.85344  -1.85289  -1.85279  -1.85248
 Alpha  occ. eigenvalues --   -1.85144  -1.85077  -1.85061  -1.85039  -1.85024
 Alpha  occ. eigenvalues --   -1.85018  -1.84995  -1.84948  -1.84393  -1.84280
 Alpha  occ. eigenvalues --   -1.84271  -1.84251  -1.84218  -1.84206  -1.84150
 Alpha  occ. eigenvalues --   -1.84130  -1.84105  -1.84095  -1.84065  -1.84057
 Alpha  occ. eigenvalues --   -1.83954  -1.83915  -1.83884  -1.83880  -1.83861
 Alpha  occ. eigenvalues --   -1.83826  -1.83800  -1.83790  -1.83783  -1.83689
 Alpha  occ. eigenvalues --   -1.83681  -1.83668  -1.81926  -1.81596  -1.81560
 Alpha  occ. eigenvalues --   -1.50201  -1.50193  -1.50126  -1.08619  -1.06999
 Alpha  occ. eigenvalues --   -1.06956  -1.06917  -1.06012  -1.06005  -1.05981
 Alpha  occ. eigenvalues --   -1.04584  -1.04574  -1.04567  -1.03970  -1.03965
 Alpha  occ. eigenvalues --   -1.03700  -1.03363  -1.03332  -1.03312  -1.03051
 Alpha  occ. eigenvalues --   -1.03036  -1.02264  -1.02232  -1.02227  -1.02109
 Alpha  occ. eigenvalues --   -1.02029  -1.02006  -1.01918  -1.01909  -1.01799
 Alpha  occ. eigenvalues --   -1.01774  -1.01756  -1.01620  -1.01584  -1.01579
 Alpha  occ. eigenvalues --   -1.01316  -1.00823  -1.00788  -1.00733  -1.00729
 Alpha  occ. eigenvalues --   -0.99993  -0.99939  -0.99878  -0.96237  -0.89357
 Alpha  occ. eigenvalues --   -0.85644  -0.85643  -0.85581  -0.85500  -0.85489
 Alpha  occ. eigenvalues --   -0.85489  -0.85457  -0.85423  -0.85410  -0.84316
 Alpha  occ. eigenvalues --   -0.82502  -0.80949  -0.71964  -0.69652  -0.65121
 Alpha  occ. eigenvalues --   -0.62319  -0.61709  -0.61650  -0.61623  -0.60675
 Alpha  occ. eigenvalues --   -0.58982  -0.58958  -0.58949  -0.58896  -0.58821
 Alpha  occ. eigenvalues --   -0.58768  -0.58741  -0.58704  -0.58552  -0.57367
 Alpha  occ. eigenvalues --   -0.57328  -0.57294  -0.57011  -0.56816  -0.56499
 Alpha  occ. eigenvalues --   -0.56452  -0.56413  -0.56015  -0.55864  -0.55367
 Alpha  occ. eigenvalues --   -0.55357  -0.55318  -0.54431  -0.54188  -0.54160
 Alpha  occ. eigenvalues --   -0.54004  -0.53681  -0.53625  -0.53616  -0.52790
 Alpha  occ. eigenvalues --   -0.52662  -0.52613  -0.52500  -0.52462  -0.51495
 Alpha  occ. eigenvalues --   -0.51484  -0.51470  -0.51388  -0.51327  -0.50826
 Alpha  occ. eigenvalues --   -0.50575  -0.50542  -0.50490  -0.50409  -0.50346
 Alpha  occ. eigenvalues --   -0.50287  -0.50091  -0.50049  -0.50027  -0.49776
 Alpha  occ. eigenvalues --   -0.49680  -0.49650  -0.49517  -0.49499  -0.49300
 Alpha  occ. eigenvalues --   -0.49258  -0.49203  -0.49116  -0.49063  -0.48988
 Alpha  occ. eigenvalues --   -0.48731  -0.48566  -0.48544  -0.48484  -0.47714
 Alpha  occ. eigenvalues --   -0.47691  -0.47228  -0.46488  -0.46053  -0.46033
 Alpha  occ. eigenvalues --   -0.45886  -0.45876  -0.45763  -0.45638  -0.45228
 Alpha  occ. eigenvalues --   -0.45150  -0.45144  -0.44848  -0.44656  -0.44507
 Alpha  occ. eigenvalues --   -0.44483  -0.44469  -0.44293  -0.44265  -0.44247
 Alpha  occ. eigenvalues --   -0.43430  -0.43178  -0.42564  -0.42536  -0.42467
 Alpha  occ. eigenvalues --   -0.42325  -0.42205  -0.42175  -0.42166  -0.41641
 Alpha  occ. eigenvalues --   -0.41626  -0.41583  -0.41047  -0.41001  -0.40798
 Alpha  occ. eigenvalues --   -0.40784  -0.40771  -0.40426  -0.40411  -0.40373
 Alpha  occ. eigenvalues --   -0.40231  -0.40203  -0.40187  -0.40145  -0.39885
 Alpha  occ. eigenvalues --   -0.39361  -0.39280  -0.39252  -0.39163  -0.39055
 Alpha  occ. eigenvalues --   -0.38957  -0.38925  -0.38836  -0.38759  -0.38716
 Alpha  occ. eigenvalues --   -0.38334  -0.38313  -0.38277  -0.38120  -0.37219
 Alpha  occ. eigenvalues --   -0.37198  -0.34655  -0.34618  -0.33700  -0.30487
 Alpha  occ. eigenvalues --   -0.25720
 Alpha virt. eigenvalues --   -0.11952  -0.06262  -0.06212  -0.04781  -0.04743
 Alpha virt. eigenvalues --   -0.04653  -0.01528  -0.01410  -0.01360  -0.01109
 Alpha virt. eigenvalues --   -0.00927  -0.00897  -0.00859  -0.00164  -0.00092

  Beta  occ. eigenvalues -- -197.10753-129.99089-129.99086-129.99010-101.62407
  Beta  occ. eigenvalues --  -22.43183 -19.28527 -19.28517 -19.28455 -19.28446
  Beta  occ. eigenvalues --  -19.28399 -19.28379 -19.28370 -19.28360 -19.28346
  Beta  occ. eigenvalues --  -19.28274 -19.28238 -19.28169 -19.26969 -19.26952
  Beta  occ. eigenvalues --  -19.26940 -19.26898 -19.26896 -19.26891 -19.26866
  Beta  occ. eigenvalues --  -19.26860 -19.26852 -19.26849 -19.26836 -19.26834
  Beta  occ. eigenvalues --  -19.26833 -19.26828 -19.26816 -19.26808 -19.26804
  Beta  occ. eigenvalues --  -19.26791 -19.26782 -19.26779 -19.26774 -19.26726
  Beta  occ. eigenvalues --  -19.26678 -19.26655 -19.24714 -19.24680 -19.24651
  Beta  occ. eigenvalues --  -19.24631 -18.93674 -18.91517 -18.91387 -13.36498
  Beta  occ. eigenvalues --  -13.36485 -13.36413 -10.69424 -10.69420 -10.69420
  Beta  occ. eigenvalues --  -10.69414 -10.69410 -10.69405 -10.69341 -10.69337
  Beta  occ. eigenvalues --  -10.69335 -10.33369 -10.32413 -10.31973 -10.31157
  Beta  occ. eigenvalues --  -10.31143 -10.31130 -10.30529 -10.30488  -9.52864
  Beta  occ. eigenvalues --   -7.28700  -7.27266  -7.27263  -3.21097  -3.21089
  Beta  occ. eigenvalues --   -3.21066  -3.21032  -3.21022  -3.21007  -3.20996
  Beta  occ. eigenvalues --   -3.20989  -3.20987  -3.20854  -3.20841  -3.20820
  Beta  occ. eigenvalues --   -2.74698  -1.85339  -1.85284  -1.85274  -1.85239
  Beta  occ. eigenvalues --   -1.85139  -1.85071  -1.85057  -1.85032  -1.85017
  Beta  occ. eigenvalues --   -1.85009  -1.84990  -1.84940  -1.84390  -1.84278
  Beta  occ. eigenvalues --   -1.84268  -1.84249  -1.84215  -1.84202  -1.84147
  Beta  occ. eigenvalues --   -1.84128  -1.84101  -1.84092  -1.84062  -1.84054
  Beta  occ. eigenvalues --   -1.83952  -1.83912  -1.83882  -1.83877  -1.83858
  Beta  occ. eigenvalues --   -1.83824  -1.83797  -1.83787  -1.83780  -1.83686
  Beta  occ. eigenvalues --   -1.83678  -1.83665  -1.80586  -1.75973  -1.75691
  Beta  occ. eigenvalues --   -1.50201  -1.50193  -1.50126  -1.08602  -1.06977
  Beta  occ. eigenvalues --   -1.06936  -1.06892  -1.06010  -1.06003  -1.05979
  Beta  occ. eigenvalues --   -1.04585  -1.04575  -1.04566  -1.03970  -1.03966
  Beta  occ. eigenvalues --   -1.03633  -1.03330  -1.03294  -1.03281  -1.03049
  Beta  occ. eigenvalues --   -1.03028  -1.02245  -1.02212  -1.02205  -1.02101
  Beta  occ. eigenvalues --   -1.02025  -1.01993  -1.01912  -1.01896  -1.01794
  Beta  occ. eigenvalues --   -1.01772  -1.01752  -1.01614  -1.01582  -1.01563
  Beta  occ. eigenvalues --   -1.01316  -1.00799  -1.00771  -1.00732  -1.00728
  Beta  occ. eigenvalues --   -0.99856  -0.99798  -0.99756  -0.96472  -0.90042
  Beta  occ. eigenvalues --   -0.85644  -0.85643  -0.85581  -0.85500  -0.85489
  Beta  occ. eigenvalues --   -0.85489  -0.85457  -0.85423  -0.85410  -0.84570
  Beta  occ. eigenvalues --   -0.84371  -0.82712  -0.72226  -0.69776  -0.65376
  Beta  occ. eigenvalues --   -0.62319  -0.61708  -0.61649  -0.61622  -0.60889
  Beta  occ. eigenvalues --   -0.58978  -0.58956  -0.58948  -0.58805  -0.58769
  Beta  occ. eigenvalues --   -0.58740  -0.58726  -0.58679  -0.58552  -0.57337
  Beta  occ. eigenvalues --   -0.57181  -0.57126  -0.57040  -0.56925  -0.56500
  Beta  occ. eigenvalues --   -0.56421  -0.56376  -0.55819  -0.55608  -0.55346
  Beta  occ. eigenvalues --   -0.55336  -0.55321  -0.54634  -0.54180  -0.54151
  Beta  occ. eigenvalues --   -0.53991  -0.53650  -0.53605  -0.53568  -0.52860
  Beta  occ. eigenvalues --   -0.52664  -0.52599  -0.52480  -0.52457  -0.51483
  Beta  occ. eigenvalues --   -0.51458  -0.51450  -0.51327  -0.51266  -0.51029
  Beta  occ. eigenvalues --   -0.50567  -0.50476  -0.50470  -0.50343  -0.50248
  Beta  occ. eigenvalues --   -0.50184  -0.50059  -0.50048  -0.49994  -0.49724
  Beta  occ. eigenvalues --   -0.49659  -0.49618  -0.49507  -0.49489  -0.49299
  Beta  occ. eigenvalues --   -0.49235  -0.49203  -0.49083  -0.49045  -0.48964
  Beta  occ. eigenvalues --   -0.48724  -0.48563  -0.48542  -0.48477  -0.47913
  Beta  occ. eigenvalues --   -0.47674  -0.47628  -0.46065  -0.45910  -0.45879
  Beta  occ. eigenvalues --   -0.45815  -0.45680  -0.45578  -0.45228  -0.45169
  Beta  occ. eigenvalues --   -0.45151  -0.45058  -0.44847  -0.44655  -0.44480
  Beta  occ. eigenvalues --   -0.44462  -0.44437  -0.44283  -0.44234  -0.44210
  Beta  occ. eigenvalues --   -0.43423  -0.43286  -0.42517  -0.42476  -0.42434
  Beta  occ. eigenvalues --   -0.42296  -0.42251  -0.42139  -0.42128  -0.41642
  Beta  occ. eigenvalues --   -0.41613  -0.41563  -0.41439  -0.41051  -0.40964
  Beta  occ. eigenvalues --   -0.40772  -0.40735  -0.40707  -0.40411  -0.40399
  Beta  occ. eigenvalues --   -0.40358  -0.40185  -0.40173  -0.40159  -0.39827
  Beta  occ. eigenvalues --   -0.39657  -0.39360  -0.39184  -0.39119  -0.39115
  Beta  occ. eigenvalues --   -0.38930  -0.38894  -0.38840  -0.38742  -0.38708
  Beta  occ. eigenvalues --   -0.38668  -0.38328  -0.38305  -0.38272  -0.37622
  Beta  occ. eigenvalues --   -0.37220  -0.37194  -0.35582  -0.35541  -0.33991
  Beta  occ. eigenvalues --   -0.30873
  Beta virt. eigenvalues --   -0.06261  -0.06212  -0.04780  -0.04742  -0.04652
  Beta virt. eigenvalues --   -0.01524  -0.01405  -0.01355  -0.01103  -0.00922
  Beta virt. eigenvalues --   -0.00892  -0.00855  -0.00155  -0.00080  -0.00047

 Mulliken charges and spin densities:
               1          2
     1  Cl  -0.355409  -0.600150
     2  C   -0.035985  -0.099027
     3  C    0.011576   0.060407
     4  C   -0.035147  -0.094671
     5  C   -0.032039   0.060157
     6  C    0.009224  -0.118699
     7  C   -0.047230   0.060492
     8  H    0.050131   0.004271
     9  H    0.051187   0.004053
    10  H    0.056325  -0.002145
    11  H    0.057598   0.005201
    12  H    0.054433  -0.002121
    13  C    0.006135  -0.269391
    14  C   -0.038647  -0.017314
    15  H    0.076586   0.011011
    16  H    0.094884   0.000952
    17  H    0.089910  -0.001527
    18  O   -0.671332  -0.000562
    19  O   -0.669607  -0.000520
    20  O   -0.665835  -0.001500
    21  O   -0.671973  -0.000540
    22  W    1.713980   0.000352
    23  W    1.657859   0.000482
    24  W    1.670296   0.000162
    25  W    1.679526   0.000221
    26  W    1.660809   0.002723
    27  W    1.708052   0.002453
    28  W    1.607657   0.003327
    29  W    1.669693   0.002811
    30  O   -0.350247  -0.000525
    31  O   -0.394045  -0.000568
    32  O   -0.395449  -0.000615
    33  O   -0.387259  -0.000566
    34  O   -0.670624  -0.000290
    35  O   -0.677386  -0.000025
    36  O   -0.669141  -0.000133
    37  O   -0.671414  -0.000197
    38  O   -0.397018   0.002117
    39  O   -0.395720   0.002165
    40  O   -0.341077   0.000447
    41  O   -0.394773   0.002145
    42  O   -0.676943   0.000051
    43  O   -0.671560   0.000154
    44  O   -0.667014   0.000271
    45  O   -0.673761   0.000098
    46  O   -0.396922   0.002278
    47  O   -0.351993   0.002144
    48  O   -0.393606   0.001783
    49  O   -0.393302   0.002300
    50  W    1.656632   0.002843
    51  W    1.662392   0.002745
    52  W    1.676110   0.003896
    53  W    1.668412   0.002692
    54  O   -0.722443   0.000096
    55  O   -0.704502   0.000004
    56  O   -0.721551   0.000136
    57  O   -0.720480   0.000067
    58  O   -0.701851   0.000079
    59  O   -0.722583   0.000160
    60  O   -0.722147   0.000213
    61  O   -0.716979   0.000202
    62  O   -0.722363  -0.000180
    63  O   -0.704496  -0.000056
    64  O   -0.724318  -0.000193
    65  O   -0.723555  -0.000199
    66  O   -0.883299   0.005273
    67  O   -0.883408   0.007297
    68  O   -0.880782   0.007267
    69  O   -0.888130   0.006571
    70  K    0.851052   0.000194
    71  K    0.848147   0.000222
    72  K    0.847789   0.000217
    73  V    1.198953   0.936519
 Sum of Mulliken charges =  -1.00000   0.00000

 Dipole moment (field-independent basis, Debye):
    X=             27.8574    Y=            -13.8223    Z=            -30.8428  Tot=             43.7992
 Quadrupole moment (field-independent basis, Debye-Ang):
   XX=           -757.3287   YY=           -711.5396   ZZ=           -784.8585
   XY=            127.2551   XZ=            172.5477   YZ=            -94.2474

 Normal termination of Gaussian 16 at Mon Jun  3 03:25:48 2024.
