 Gaussian 16, Revision C.01,
 Gaussian 16:  ES64L-G16RevC.01  3-Jul-2019

 ----------------------------------------------------------------------
 # def2svp wb97xd scrf=(smd,solvent=acetonitrile) g09default scf=(xqc,m
 axcycle=64) force guess=read nosymm
 ----------------------------------------------------------------------

 ----------
 Title Card
 ----------
 Symbolic Z-matrix:
 Charge = -1 Multiplicity = 1

                          Input orientation:
 ---------------------------------------------------------------------
 Center     Atomic      Atomic             Coordinates (Angstroms)
 Number     Number       Type             X           Y           Z
 ---------------------------------------------------------------------
      1         17           0       -9.676148    8.274098   10.536171
      2          6           0       -8.382381    4.285089   12.200365
      3          6           0       -9.185790    3.958937   11.091315
      4          6           0      -10.094530    2.892427   11.222563
      5          6           0      -10.209223    2.190511   12.418724
      6          6           0       -9.405110    2.527376   13.508640
      7          6           0       -8.490843    3.576853   13.392463
      8          1           0       -7.666108    5.106876   12.135312
      9          1           0      -10.728869    2.626593   10.372129
     10          1           0      -10.934494    1.377690   12.503961
     11          1           0       -9.481541    1.967983   14.443404
     12          1           0       -7.863376    3.854074   14.243194
     13          6           0       -9.140363    4.711082    9.836105
     14          6           0       -8.439970    5.845084    9.625318
     15          1           0       -9.762822    4.313955    9.025997
     16          1           0       -8.470911    6.354716    8.662131
     17          1           0       -7.762465    6.259299   10.372225
     18          8           0       -0.975004   -1.821328    7.454974
     19          8           0       -8.374775   -1.322987    7.461115
     20          8           0       -7.007729    1.333591   10.487359
     21          8           0       -2.328804   -4.397798   10.555154
     22         74           0       -3.377971    0.712156    6.504010
     23         74           0       -5.994517   -3.843627    6.571725
     24         74           0       -3.584241    0.879540   11.397013
     25         74           0       -5.769587   -3.890510   11.470227
     26         74           0       -2.445275   -2.587009    6.377929
     27         74           0       -6.905646   -0.545312    6.349563
     28         74           0       -6.785023   -0.265947   11.587950
     29         74           0       -2.555212   -2.743945   11.621444
     30          8           0       -3.135603    1.907656    5.337678
     31          8           0       -6.135848   -5.092870    5.429160
     32          8           0       -2.658210    1.720256   12.547716
     33          8           0       -6.681509   -4.702818   12.649600
     34          8           0       -2.660705   -0.909390    5.587251
     35          8           0       -6.690816   -2.279591    5.621198
     36          8           0       -5.276240    0.540021   12.360803
     37          8           0       -4.054873   -3.545457   12.408738
     38          8           0        0.341631   -0.067960    9.269500
     39          8           0       -9.694922   -3.013250    9.317357
     40          8           0       -6.370560    3.414030    8.675344
     41          8           0       -2.984592   -6.495059    8.746317
     42          8           0       -1.758687    0.732542    7.481898
     43          8           0       -7.598404   -3.881671    7.548836
     44          8           0       -4.479365    2.193509   10.422908
     45          8           0       -4.865982   -5.241303   10.520450
     46          8           0       -1.618196   -3.520751    5.222940
     47          8           0       -7.780903    0.259301    5.151270
     48          8           0       -7.998737   -0.163225   12.770875
     49          8           0       -1.326461   -2.869978   12.788103
     50         74           0       -1.222605   -0.575488    8.839023
     51         74           0       -8.131255   -2.516802    8.874151
     52         74           0       -5.886443    1.843513    9.048920
     53         74           0       -3.472409   -4.920418    9.159409
     54          8           0       -4.218489   -3.123632    6.066104
     55          8           0       -5.130608   -0.054386    6.017572
     56          8           0       -6.164706   -2.018658   11.924000
     57          8           0       -3.157049   -0.993366   11.916697
     58          8           0       -4.341180    1.581389    7.847361
     59          8           0       -5.004602   -4.702413    7.920808
     60          8           0       -2.292019    0.555585   10.074149
     61          8           0       -7.051487   -3.621757   10.133271
     62          8           0       -2.571419   -3.915498    7.855558
     63          8           0       -6.797411    0.786614    7.800279
     64          8           0       -7.811050   -1.180065   10.155987
     65          8           0       -1.538544   -1.888302   10.148373
     66          8           0       -3.345410   -1.166015    8.014438
     67          8           0       -6.004836   -1.968264    8.034877
     68          8           0       -5.099260   -0.217322    9.944233
     69          8           0       -4.234660   -2.855031    9.975557
     70         19           0       -3.222379   -6.145274    5.648625
     71         19           0       -0.128466   -0.009264   12.316273
     72         19           0       -9.291687   -2.819319   12.403906
     73         23           0       -4.673093   -1.547695    8.989885
 ---------------------------------------------------------------------

 SCF Done:  E(RwB97XD) =  -7327.70218908     A.U. after   12 cycles

 Alpha  occ. eigenvalues -- -197.29327-130.00116-130.00028-130.00008-101.48359
 Alpha  occ. eigenvalues --  -22.62465 -19.33610 -19.33608 -19.33601 -19.33578
 Alpha  occ. eigenvalues --  -19.30734 -19.30696 -19.30692 -19.30691 -19.30669
 Alpha  occ. eigenvalues --  -19.30667 -19.30664 -19.30644 -19.30588 -19.30372
 Alpha  occ. eigenvalues --  -19.30349 -19.30171 -19.29360 -19.29352 -19.29339
 Alpha  occ. eigenvalues --  -19.29325 -19.29321 -19.29302 -19.29297 -19.29273
 Alpha  occ. eigenvalues --  -19.29235 -19.29209 -19.29203 -19.29190 -19.29179
 Alpha  occ. eigenvalues --  -19.29151 -19.29124 -19.29117 -19.29111 -19.29110
 Alpha  occ. eigenvalues --  -19.29101 -19.29083 -19.29035 -19.28996 -19.28980
 Alpha  occ. eigenvalues --  -19.28893 -19.11420 -19.11412 -19.11403 -13.37518
 Alpha  occ. eigenvalues --  -13.37421 -13.37405 -10.70447 -10.70440 -10.70440
 Alpha  occ. eigenvalues --  -10.70352 -10.70346 -10.70341 -10.70335 -10.70328
 Alpha  occ. eigenvalues --  -10.70327 -10.29849 -10.29314 -10.29291 -10.29033
 Alpha  occ. eigenvalues --  -10.28961 -10.28910 -10.28151 -10.27435  -9.38833
 Alpha  occ. eigenvalues --   -7.13662  -7.13607  -7.13603  -3.23310  -3.23306
 Alpha  occ. eigenvalues --   -3.23293  -3.23288  -3.23281  -3.23245  -3.23243
 Alpha  occ. eigenvalues --   -3.23242  -3.23223  -3.22961  -3.22945  -3.22765
 Alpha  occ. eigenvalues --   -2.91744  -1.94134  -1.94104  -1.94093  -1.87715
 Alpha  occ. eigenvalues --   -1.87665  -1.87655  -1.87618  -1.87489  -1.87467
 Alpha  occ. eigenvalues --   -1.87465  -1.87450  -1.87425  -1.87272  -1.87243
 Alpha  occ. eigenvalues --   -1.87088  -1.86629  -1.86510  -1.86500  -1.86483
 Alpha  occ. eigenvalues --   -1.86454  -1.86432  -1.86347  -1.86322  -1.86309
 Alpha  occ. eigenvalues --   -1.86296  -1.86279  -1.86262  -1.86144  -1.86133
 Alpha  occ. eigenvalues --   -1.86120  -1.86108  -1.86038  -1.86021  -1.85990
 Alpha  occ. eigenvalues --   -1.85918  -1.85896  -1.85800  -1.85715  -1.85661
 Alpha  occ. eigenvalues --   -1.51207  -1.51115  -1.51103  -1.13023  -1.11249
 Alpha  occ. eigenvalues --   -1.11166  -1.11163  -1.08969  -1.08535  -1.08501
 Alpha  occ. eigenvalues --   -1.08320  -1.07560  -1.07492  -1.07487  -1.06905
 Alpha  occ. eigenvalues --   -1.06892  -1.06874  -1.06309  -1.06283  -1.05352
 Alpha  occ. eigenvalues --   -1.05344  -1.04983  -1.04977  -1.04960  -1.04227
 Alpha  occ. eigenvalues --   -1.04223  -1.04190  -1.04047  -1.04016  -1.04002
 Alpha  occ. eigenvalues --   -1.03945  -1.03927  -1.03898  -1.03767  -1.03755
 Alpha  occ. eigenvalues --   -1.03623  -1.03573  -1.03311  -1.03276  -1.03150
 Alpha  occ. eigenvalues --   -1.03135  -1.03070  -1.02986  -0.94357  -0.86673
 Alpha  occ. eigenvalues --   -0.86590  -0.86582  -0.86501  -0.86483  -0.86481
 Alpha  occ. eigenvalues --   -0.86406  -0.86387  -0.86377  -0.86370  -0.82801
 Alpha  occ. eigenvalues --   -0.79712  -0.71604  -0.69646  -0.67984  -0.64598
 Alpha  occ. eigenvalues --   -0.63969  -0.63903  -0.63882  -0.63282  -0.63261
 Alpha  occ. eigenvalues --   -0.63152  -0.62931  -0.62660  -0.62599  -0.61951
 Alpha  occ. eigenvalues --   -0.61603  -0.61582  -0.61490  -0.61243  -0.61223
 Alpha  occ. eigenvalues --   -0.61179  -0.60418  -0.59471  -0.59445  -0.59434
 Alpha  occ. eigenvalues --   -0.59391  -0.59357  -0.58635  -0.58008  -0.57972
 Alpha  occ. eigenvalues --   -0.57893  -0.57051  -0.57028  -0.56998  -0.56279
 Alpha  occ. eigenvalues --   -0.56258  -0.56106  -0.55711  -0.54874  -0.54812
 Alpha  occ. eigenvalues --   -0.54769  -0.54515  -0.54239  -0.54116  -0.54103
 Alpha  occ. eigenvalues --   -0.54035  -0.53962  -0.53266  -0.53231  -0.53094
 Alpha  occ. eigenvalues --   -0.53052  -0.52913  -0.52740  -0.52709  -0.52656
 Alpha  occ. eigenvalues --   -0.52627  -0.52515  -0.52462  -0.52394  -0.51625
 Alpha  occ. eigenvalues --   -0.51609  -0.51372  -0.51338  -0.51309  -0.51257
 Alpha  occ. eigenvalues --   -0.51193  -0.51171  -0.50961  -0.50798  -0.50624
 Alpha  occ. eigenvalues --   -0.50599  -0.50595  -0.49942  -0.49921  -0.49302
 Alpha  occ. eigenvalues --   -0.49269  -0.49231  -0.49220  -0.49167  -0.49090
 Alpha  occ. eigenvalues --   -0.48905  -0.48084  -0.48037  -0.47923  -0.47626
 Alpha  occ. eigenvalues --   -0.47399  -0.47296  -0.47253  -0.47027  -0.46974
 Alpha  occ. eigenvalues --   -0.46896  -0.46605  -0.46601  -0.46487  -0.46212
 Alpha  occ. eigenvalues --   -0.46160  -0.46119  -0.45639  -0.45112  -0.44935
 Alpha  occ. eigenvalues --   -0.44899  -0.44206  -0.44158  -0.44043  -0.43513
 Alpha  occ. eigenvalues --   -0.43318  -0.43274  -0.43142  -0.43133  -0.43097
 Alpha  occ. eigenvalues --   -0.42761  -0.42737  -0.42700  -0.42620  -0.42605
 Alpha  occ. eigenvalues --   -0.42533  -0.42496  -0.42483  -0.42313  -0.42303
 Alpha  occ. eigenvalues --   -0.42278  -0.42052  -0.41922  -0.41880  -0.41866
 Alpha  occ. eigenvalues --   -0.41245  -0.41222  -0.41161  -0.41088  -0.40588
 Alpha  occ. eigenvalues --   -0.40573  -0.40565  -0.40356  -0.39459  -0.39446
 Alpha  occ. eigenvalues --   -0.37033  -0.32557  -0.29215  -0.25133  -0.25104
 Alpha  occ. eigenvalues --   -0.23468
 Alpha virt. eigenvalues --   -0.09371  -0.09168  -0.08372  -0.08325  -0.06920
 Alpha virt. eigenvalues --   -0.06900  -0.06819  -0.04383  -0.04104  -0.04052
 Alpha virt. eigenvalues --   -0.03730  -0.03501  -0.03444  -0.03228  -0.03088

 Mulliken charges:
               1
     1  Cl  -0.894224
     2  C   -0.082505
     3  C    0.048959
     4  C   -0.081570
     5  C   -0.034305
     6  C   -0.033127
     7  C   -0.048962
     8  H    0.029059
     9  H    0.029138
    10  H    0.040995
    11  H    0.037011
    12  H    0.039358
    13  C   -0.127594
    14  C    0.033514
    15  H    0.019617
    16  H    0.035138
    17  H    0.027221
    18  O   -0.662154
    19  O   -0.660493
    20  O   -0.654879
    21  O   -0.662755
    22  W    1.730366
    23  W    1.671585
    24  W    1.682384
    25  W    1.693236
    26  W    1.674083
    27  W    1.725565
    28  W    1.615202
    29  W    1.683401
    30  O   -0.320202
    31  O   -0.365665
    32  O   -0.366825
    33  O   -0.358153
    34  O   -0.662005
    35  O   -0.669870
    36  O   -0.659964
    37  O   -0.662252
    38  O   -0.367105
    39  O   -0.365507
    40  O   -0.298461
    41  O   -0.364733
    42  O   -0.669225
    43  O   -0.662749
    44  O   -0.658111
    45  O   -0.665366
    46  O   -0.367098
    47  O   -0.320303
    48  O   -0.360039
    49  O   -0.363291
    50  W    1.670073
    51  W    1.676098
    52  W    1.682672
    53  W    1.682605
    54  O   -0.724124
    55  O   -0.705986
    56  O   -0.724456
    57  O   -0.722316
    58  O   -0.703748
    59  O   -0.724946
    60  O   -0.724186
    61  O   -0.718981
    62  O   -0.723707
    63  O   -0.705549
    64  O   -0.724999
    65  O   -0.725146
    66  O   -0.800988
    67  O   -0.800179
    68  O   -0.797649
    69  O   -0.808083
    70  K    0.864858
    71  K    0.862005
    72  K    0.861797
    73  V    1.188596
 Sum of Mulliken charges =  -1.00000

 Dipole moment (field-independent basis, Debye):
    X=             50.1217    Y=            -51.2958    Z=            -38.9735  Tot=             81.6234
 Quadrupole moment (field-independent basis, Debye-Ang):
   XX=          -1041.6652   YY=           -887.8962   ZZ=           -920.5281
   XY=            447.4618   XZ=            449.3325   YZ=           -478.3159

 Normal termination of Gaussian 16 at Mon Jun  3 04:21:48 2024.
