 Gaussian 16, Revision C.01,
 Gaussian 16:  ES64L-G16RevC.01  3-Jul-2019

 ----------------------------------------------------------------------
 # def2svp wb97xd scrf=(smd,solvent=acetonitrile) g09default scf=(xqc,m
 axcycle=64) force guess=read nosymm
 ----------------------------------------------------------------------

 ----------
 Title Card
 ----------
 Symbolic Z-matrix:
 Charge = -1 Multiplicity = 1

                          Input orientation:
 ---------------------------------------------------------------------
 Center     Atomic      Atomic             Coordinates (Angstroms)
 Number     Number       Type             X           Y           Z
 ---------------------------------------------------------------------
      1         17           0       -9.676148    8.274098   10.536171
      2          6           0       -8.382381    4.285089   12.200365
      3          6           0       -9.185790    3.958937   11.091315
      4          6           0      -10.094530    2.892427   11.222563
      5          6           0      -10.209223    2.190511   12.418724
      6          6           0       -9.405110    2.527376   13.508640
      7          6           0       -8.490843    3.576853   13.392463
      8          1           0       -7.666108    5.106876   12.135312
      9          1           0      -10.728869    2.626593   10.372129
     10          1           0      -10.934494    1.377690   12.503961
     11          1           0       -9.481541    1.967983   14.443404
     12          1           0       -7.863376    3.854074   14.243194
     13          6           0       -9.140363    4.711082    9.836105
     14          6           0       -8.439970    5.845084    9.625318
     15          1           0       -9.762822    4.313955    9.025997
     16          1           0       -8.470911    6.354716    8.662131
     17          1           0       -7.762465    6.259299   10.372225
     18          8           0       -0.975004   -1.821328    7.454974
     19          8           0       -8.374775   -1.322987    7.461115
     20          8           0       -7.007729    1.333591   10.487359
     21          8           0       -2.328804   -4.397798   10.555154
     22         74           0       -3.377971    0.712156    6.504010
     23         74           0       -5.994517   -3.843627    6.571725
     24         74           0       -3.584241    0.879540   11.397013
     25         74           0       -5.769587   -3.890510   11.470227
     26         74           0       -2.445275   -2.587009    6.377929
     27         74           0       -6.905646   -0.545312    6.349563
     28         74           0       -6.785023   -0.265947   11.587950
     29         74           0       -2.555212   -2.743945   11.621444
     30          8           0       -3.135603    1.907656    5.337678
     31          8           0       -6.135848   -5.092870    5.429160
     32          8           0       -2.658210    1.720256   12.547716
     33          8           0       -6.681509   -4.702818   12.649600
     34          8           0       -2.660705   -0.909390    5.587251
     35          8           0       -6.690816   -2.279591    5.621198
     36          8           0       -5.276240    0.540021   12.360803
     37          8           0       -4.054873   -3.545457   12.408738
     38          8           0        0.341631   -0.067960    9.269500
     39          8           0       -9.694922   -3.013250    9.317357
     40          8           0       -6.370560    3.414030    8.675344
     41          8           0       -2.984592   -6.495059    8.746317
     42          8           0       -1.758687    0.732542    7.481898
     43          8           0       -7.598404   -3.881671    7.548836
     44          8           0       -4.479365    2.193509   10.422908
     45          8           0       -4.865982   -5.241303   10.520450
     46          8           0       -1.618196   -3.520751    5.222940
     47          8           0       -7.780903    0.259301    5.151270
     48          8           0       -7.998737   -0.163225   12.770875
     49          8           0       -1.326461   -2.869978   12.788103
     50         74           0       -1.222605   -0.575488    8.839023
     51         74           0       -8.131255   -2.516802    8.874151
     52         74           0       -5.886443    1.843513    9.048920
     53         74           0       -3.472409   -4.920418    9.159409
     54          8           0       -4.218489   -3.123632    6.066104
     55          8           0       -5.130608   -0.054386    6.017572
     56          8           0       -6.164706   -2.018658   11.924000
     57          8           0       -3.157049   -0.993366   11.916697
     58          8           0       -4.341180    1.581389    7.847361
     59          8           0       -5.004602   -4.702413    7.920808
     60          8           0       -2.292019    0.555585   10.074149
     61          8           0       -7.051487   -3.621757   10.133271
     62          8           0       -2.571419   -3.915498    7.855558
     63          8           0       -6.797411    0.786614    7.800279
     64          8           0       -7.811050   -1.180065   10.155987
     65          8           0       -1.538544   -1.888302   10.148373
     66          8           0       -3.345410   -1.166015    8.014438
     67          8           0       -6.004836   -1.968264    8.034877
     68          8           0       -5.099260   -0.217322    9.944233
     69          8           0       -4.234660   -2.855031    9.975557
     70         19           0       -3.222379   -6.145274    5.648625
     71         19           0       -0.128466   -0.009264   12.316273
     72         19           0       -9.291687   -2.819319   12.403906
     73         23           0       -4.673093   -1.547695    8.989885
 ---------------------------------------------------------------------

 SCF Done:  E(UwB97XD) =  -7327.70214734     A.U. after   52 cycles

 Alpha  occ. eigenvalues --  -19.24655 -18.94015 -18.92942 -18.92877 -13.36499
 Alpha  occ. eigenvalues --  -13.36491 -13.36409 -10.69426 -10.69422 -10.69421
 Alpha  occ. eigenvalues --  -10.69420 -10.69415 -10.69410 -10.69336 -10.69332
 Alpha  occ. eigenvalues --  -10.69331 -10.33084 -10.32305 -10.32028 -10.31035
 Alpha  occ. eigenvalues --  -10.31033 -10.31026 -10.30588 -10.30551  -9.52426
 Alpha  occ. eigenvalues --   -7.27310  -7.26970  -7.26967  -3.21098  -3.21088
 Alpha  occ. eigenvalues --   -3.21064  -3.21035  -3.21021  -3.21011  -3.20999
 Alpha  occ. eigenvalues --   -3.20993  -3.20990  -3.20853  -3.20843  -3.20821
 Alpha  occ. eigenvalues --   -2.78756  -1.85341  -1.85287  -1.85278  -1.85244
 Alpha  occ. eigenvalues --   -1.85141  -1.85077  -1.85061  -1.85037  -1.85023
 Alpha  occ. eigenvalues --   -1.85015  -1.84994  -1.84946  -1.84392  -1.84278
 Alpha  occ. eigenvalues --   -1.84270  -1.84250  -1.84216  -1.84204  -1.84149
 Alpha  occ. eigenvalues --   -1.84128  -1.84103  -1.84094  -1.84063  -1.84055
 Alpha  occ. eigenvalues --   -1.83952  -1.83914  -1.83883  -1.83879  -1.83859
 Alpha  occ. eigenvalues --   -1.83825  -1.83797  -1.83788  -1.83781  -1.83687
 Alpha  occ. eigenvalues --   -1.83679  -1.83665  -1.81924  -1.81593  -1.81558
 Alpha  occ. eigenvalues --   -1.50202  -1.50198  -1.50121  -1.08618  -1.06997
 Alpha  occ. eigenvalues --   -1.06955  -1.06916  -1.06010  -1.06003  -1.05980
 Alpha  occ. eigenvalues --   -1.04583  -1.04573  -1.04566  -1.03967  -1.03961
 Alpha  occ. eigenvalues --   -1.03699  -1.03360  -1.03330  -1.03309  -1.03053
 Alpha  occ. eigenvalues --   -1.03038  -1.02261  -1.02231  -1.02226  -1.02108
 Alpha  occ. eigenvalues --   -1.02031  -1.02005  -1.01918  -1.01909  -1.01800
 Alpha  occ. eigenvalues --   -1.01774  -1.01755  -1.01618  -1.01586  -1.01578
 Alpha  occ. eigenvalues --   -1.01315  -1.00823  -1.00791  -1.00736  -1.00733
 Alpha  occ. eigenvalues --   -0.99992  -0.99937  -0.99877  -0.96236  -0.89358
 Alpha  occ. eigenvalues --   -0.85649  -0.85644  -0.85577  -0.85505  -0.85491
 Alpha  occ. eigenvalues --   -0.85490  -0.85462  -0.85419  -0.85407  -0.84314
 Alpha  occ. eigenvalues --   -0.82501  -0.80952  -0.71961  -0.69655  -0.65123
 Alpha  occ. eigenvalues --   -0.62315  -0.61704  -0.61646  -0.61619  -0.60680
 Alpha  occ. eigenvalues --   -0.58982  -0.58957  -0.58948  -0.58896  -0.58821
 Alpha  occ. eigenvalues --   -0.58763  -0.58735  -0.58698  -0.58550  -0.57364
 Alpha  occ. eigenvalues --   -0.57325  -0.57292  -0.57008  -0.56814  -0.56497
 Alpha  occ. eigenvalues --   -0.56450  -0.56411  -0.56013  -0.55861  -0.55367
 Alpha  occ. eigenvalues --   -0.55357  -0.55318  -0.54429  -0.54191  -0.54163
 Alpha  occ. eigenvalues --   -0.54008  -0.53675  -0.53619  -0.53610  -0.52794
 Alpha  occ. eigenvalues --   -0.52662  -0.52612  -0.52497  -0.52462  -0.51496
 Alpha  occ. eigenvalues --   -0.51484  -0.51470  -0.51388  -0.51328  -0.50826
 Alpha  occ. eigenvalues --   -0.50573  -0.50541  -0.50489  -0.50406  -0.50345
 Alpha  occ. eigenvalues --   -0.50287  -0.50094  -0.50051  -0.50029  -0.49778
 Alpha  occ. eigenvalues --   -0.49682  -0.49653  -0.49516  -0.49498  -0.49302
 Alpha  occ. eigenvalues --   -0.49259  -0.49203  -0.49112  -0.49058  -0.48983
 Alpha  occ. eigenvalues --   -0.48731  -0.48564  -0.48543  -0.48485  -0.47720
 Alpha  occ. eigenvalues --   -0.47696  -0.47232  -0.46488  -0.46052  -0.46034
 Alpha  occ. eigenvalues --   -0.45886  -0.45876  -0.45763  -0.45638  -0.45228
 Alpha  occ. eigenvalues --   -0.45149  -0.45143  -0.44854  -0.44664  -0.44511
 Alpha  occ. eigenvalues --   -0.44483  -0.44471  -0.44292  -0.44269  -0.44251
 Alpha  occ. eigenvalues --   -0.43426  -0.43178  -0.42566  -0.42538  -0.42471
 Alpha  occ. eigenvalues --   -0.42324  -0.42204  -0.42175  -0.42166  -0.41640
 Alpha  occ. eigenvalues --   -0.41626  -0.41582  -0.41047  -0.41002  -0.40800
 Alpha  occ. eigenvalues --   -0.40785  -0.40773  -0.40431  -0.40417  -0.40379
 Alpha  occ. eigenvalues --   -0.40232  -0.40206  -0.40188  -0.40147  -0.39886
 Alpha  occ. eigenvalues --   -0.39361  -0.39282  -0.39256  -0.39166  -0.39056
 Alpha  occ. eigenvalues --   -0.38963  -0.38930  -0.38841  -0.38760  -0.38718
 Alpha  occ. eigenvalues --   -0.38337  -0.38316  -0.38281  -0.38130  -0.37219
 Alpha  occ. eigenvalues --   -0.37199  -0.34659  -0.34624  -0.33699  -0.30492
 Alpha  occ. eigenvalues --   -0.25716
 Alpha virt. eigenvalues --   -0.11952  -0.06244  -0.06195  -0.04768  -0.04728
 Alpha virt. eigenvalues --   -0.04637  -0.01530  -0.01408  -0.01356  -0.01103
 Alpha virt. eigenvalues --   -0.00926  -0.00893  -0.00856  -0.00164  -0.00091

  Beta  occ. eigenvalues -- -197.10748-129.99092-129.99091-129.99006-101.62417
  Beta  occ. eigenvalues --  -22.43179 -19.28523 -19.28516 -19.28457 -19.28446
  Beta  occ. eigenvalues --  -19.28395 -19.28382 -19.28370 -19.28357 -19.28339
  Beta  occ. eigenvalues --  -19.28278 -19.28236 -19.28167 -19.26972 -19.26956
  Beta  occ. eigenvalues --  -19.26943 -19.26904 -19.26902 -19.26896 -19.26869
  Beta  occ. eigenvalues --  -19.26865 -19.26854 -19.26852 -19.26840 -19.26839
  Beta  occ. eigenvalues --  -19.26838 -19.26833 -19.26820 -19.26808 -19.26805
  Beta  occ. eigenvalues --  -19.26796 -19.26785 -19.26783 -19.26778 -19.26727
  Beta  occ. eigenvalues --  -19.26682 -19.26656 -19.24715 -19.24683 -19.24651
  Beta  occ. eigenvalues --  -19.24630 -18.93670 -18.91511 -18.91384 -13.36499
  Beta  occ. eigenvalues --  -13.36491 -13.36409 -10.69426 -10.69422 -10.69421
  Beta  occ. eigenvalues --  -10.69420 -10.69415 -10.69410 -10.69336 -10.69332
  Beta  occ. eigenvalues --  -10.69331 -10.33372 -10.32420 -10.31975 -10.31155
  Beta  occ. eigenvalues --  -10.31140 -10.31135 -10.30528 -10.30490  -9.52873
  Beta  occ. eigenvalues --   -7.28710  -7.27275  -7.27272  -3.21094  -3.21085
  Beta  occ. eigenvalues --   -3.21063  -3.21029  -3.21020  -3.21004  -3.20994
  Beta  occ. eigenvalues --   -3.20987  -3.20984  -3.20853  -3.20838  -3.20816
  Beta  occ. eigenvalues --   -2.74695  -1.85335  -1.85283  -1.85273  -1.85236
  Beta  occ. eigenvalues --   -1.85137  -1.85071  -1.85056  -1.85031  -1.85015
  Beta  occ. eigenvalues --   -1.85005  -1.84989  -1.84937  -1.84389  -1.84276
  Beta  occ. eigenvalues --   -1.84267  -1.84248  -1.84213  -1.84201  -1.84146
  Beta  occ. eigenvalues --   -1.84126  -1.84099  -1.84091  -1.84060  -1.84052
  Beta  occ. eigenvalues --   -1.83949  -1.83910  -1.83881  -1.83876  -1.83856
  Beta  occ. eigenvalues --   -1.83822  -1.83795  -1.83786  -1.83777  -1.83685
  Beta  occ. eigenvalues --   -1.83676  -1.83662  -1.80584  -1.75969  -1.75691
  Beta  occ. eigenvalues --   -1.50202  -1.50198  -1.50121  -1.08601  -1.06976
  Beta  occ. eigenvalues --   -1.06935  -1.06890  -1.06008  -1.06002  -1.05978
  Beta  occ. eigenvalues --   -1.04584  -1.04574  -1.04565  -1.03967  -1.03962
  Beta  occ. eigenvalues --   -1.03632  -1.03327  -1.03292  -1.03279  -1.03052
  Beta  occ. eigenvalues --   -1.03030  -1.02243  -1.02210  -1.02204  -1.02100
  Beta  occ. eigenvalues --   -1.02027  -1.01992  -1.01914  -1.01895  -1.01795
  Beta  occ. eigenvalues --   -1.01772  -1.01751  -1.01613  -1.01583  -1.01563
  Beta  occ. eigenvalues --   -1.01315  -1.00802  -1.00771  -1.00735  -1.00731
  Beta  occ. eigenvalues --   -0.99855  -0.99798  -0.99754  -0.96470  -0.90042
  Beta  occ. eigenvalues --   -0.85649  -0.85644  -0.85577  -0.85505  -0.85491
  Beta  occ. eigenvalues --   -0.85490  -0.85462  -0.85419  -0.85407  -0.84571
  Beta  occ. eigenvalues --   -0.84370  -0.82714  -0.72223  -0.69779  -0.65376
  Beta  occ. eigenvalues --   -0.62314  -0.61704  -0.61646  -0.61619  -0.60893
  Beta  occ. eigenvalues --   -0.58977  -0.58954  -0.58947  -0.58805  -0.58766
  Beta  occ. eigenvalues --   -0.58738  -0.58721  -0.58675  -0.58550  -0.57335
  Beta  occ. eigenvalues --   -0.57177  -0.57124  -0.57037  -0.56923  -0.56498
  Beta  occ. eigenvalues --   -0.56419  -0.56375  -0.55817  -0.55605  -0.55346
  Beta  occ. eigenvalues --   -0.55336  -0.55321  -0.54630  -0.54182  -0.54154
  Beta  occ. eigenvalues --   -0.53995  -0.53644  -0.53600  -0.53562  -0.52863
  Beta  occ. eigenvalues --   -0.52663  -0.52598  -0.52477  -0.52457  -0.51484
  Beta  occ. eigenvalues --   -0.51457  -0.51450  -0.51327  -0.51267  -0.51029
  Beta  occ. eigenvalues --   -0.50563  -0.50474  -0.50468  -0.50342  -0.50248
  Beta  occ. eigenvalues --   -0.50184  -0.50061  -0.50050  -0.49996  -0.49726
  Beta  occ. eigenvalues --   -0.49660  -0.49621  -0.49506  -0.49488  -0.49300
  Beta  occ. eigenvalues --   -0.49236  -0.49203  -0.49079  -0.49039  -0.48958
  Beta  occ. eigenvalues --   -0.48724  -0.48562  -0.48541  -0.48479  -0.47918
  Beta  occ. eigenvalues --   -0.47680  -0.47634  -0.46063  -0.45909  -0.45880
  Beta  occ. eigenvalues --   -0.45814  -0.45680  -0.45578  -0.45227  -0.45168
  Beta  occ. eigenvalues --   -0.45150  -0.45058  -0.44854  -0.44663  -0.44483
  Beta  occ. eigenvalues --   -0.44467  -0.44437  -0.44283  -0.44236  -0.44212
  Beta  occ. eigenvalues --   -0.43420  -0.43285  -0.42519  -0.42479  -0.42436
  Beta  occ. eigenvalues --   -0.42294  -0.42251  -0.42139  -0.42126  -0.41644
  Beta  occ. eigenvalues --   -0.41614  -0.41563  -0.41444  -0.41051  -0.40965
  Beta  occ. eigenvalues --   -0.40773  -0.40737  -0.40709  -0.40417  -0.40405
  Beta  occ. eigenvalues --   -0.40363  -0.40187  -0.40175  -0.40159  -0.39829
  Beta  occ. eigenvalues --   -0.39661  -0.39359  -0.39185  -0.39123  -0.39120
  Beta  occ. eigenvalues --   -0.38934  -0.38900  -0.38844  -0.38743  -0.38709
  Beta  occ. eigenvalues --   -0.38670  -0.38331  -0.38308  -0.38276  -0.37633
  Beta  occ. eigenvalues --   -0.37220  -0.37194  -0.35587  -0.35547  -0.33990
  Beta  occ. eigenvalues --   -0.30876
  Beta virt. eigenvalues --   -0.06243  -0.06196  -0.04767  -0.04727  -0.04636
  Beta virt. eigenvalues --   -0.01525  -0.01404  -0.01351  -0.01097  -0.00921
  Beta virt. eigenvalues --   -0.00888  -0.00851  -0.00155  -0.00080  -0.00047

 Mulliken charges and spin densities:
               1          2
     1  Cl  -0.355107  -0.600800
     2  C   -0.036165  -0.098872
     3  C    0.011470   0.060453
     4  C   -0.035214  -0.094606
     5  C   -0.032112   0.060061
     6  C    0.009205  -0.118409
     7  C   -0.047140   0.060408
     8  H    0.049986   0.004260
     9  H    0.051173   0.004047
    10  H    0.056343  -0.002139
    11  H    0.057664   0.005189
    12  H    0.054398  -0.002118
    13  C    0.006003  -0.268994
    14  C   -0.038315  -0.017527
    15  H    0.076439   0.011002
    16  H    0.094923   0.000935
    17  H    0.090086  -0.001418
    18  O   -0.671051  -0.000561
    19  O   -0.669334  -0.000518
    20  O   -0.665727  -0.001481
    21  O   -0.671734  -0.000539
    22  W    1.713559   0.000353
    23  W    1.657193   0.000483
    24  W    1.669762   0.000162
    25  W    1.679039   0.000221
    26  W    1.660327   0.002729
    27  W    1.707659   0.002456
    28  W    1.607086   0.003324
    29  W    1.669072   0.002819
    30  O   -0.350111  -0.000525
    31  O   -0.394046  -0.000567
    32  O   -0.395385  -0.000616
    33  O   -0.386973  -0.000565
    34  O   -0.670389  -0.000294
    35  O   -0.677231  -0.000028
    36  O   -0.668909  -0.000137
    37  O   -0.671186  -0.000202
    38  O   -0.397052   0.002114
    39  O   -0.395703   0.002159
    40  O   -0.341107   0.000464
    41  O   -0.394885   0.002143
    42  O   -0.676761   0.000054
    43  O   -0.671339   0.000157
    44  O   -0.666765   0.000274
    45  O   -0.673646   0.000101
    46  O   -0.397074   0.002284
    47  O   -0.352030   0.002148
    48  O   -0.393495   0.001788
    49  O   -0.393469   0.002307
    50  W    1.656150   0.002844
    51  W    1.661702   0.002744
    52  W    1.675869   0.003885
    53  W    1.667878   0.002692
    54  O   -0.722066   0.000094
    55  O   -0.704224   0.000003
    56  O   -0.721348   0.000134
    57  O   -0.720221   0.000066
    58  O   -0.701607   0.000080
    59  O   -0.722325   0.000160
    60  O   -0.721809   0.000213
    61  O   -0.716723   0.000202
    62  O   -0.722091  -0.000180
    63  O   -0.704230  -0.000056
    64  O   -0.724097  -0.000192
    65  O   -0.723366  -0.000199
    66  O   -0.883217   0.005261
    67  O   -0.883258   0.007296
    68  O   -0.880686   0.007273
    69  O   -0.887913   0.006585
    70  K    0.851209   0.000194
    71  K    0.848154   0.000222
    72  K    0.847946   0.000217
    73  V    1.198340   0.936479
 Sum of Mulliken charges =  -1.00000   0.00000

 Dipole moment (field-independent basis, Debye):
    X=             27.8306    Y=            -13.8293    Z=            -30.8562  Tot=             43.7938
 Quadrupole moment (field-independent basis, Debye-Ang):
   XX=           -757.1466   YY=           -711.3956   ZZ=           -785.1824
   XY=            127.3073   XZ=            172.4083   YZ=            -94.3969

 Normal termination of Gaussian 16 at Mon Jun  3 04:10:42 2024.
