 Gaussian 16, Revision C.01,
 Gaussian 16:  ES64L-G16RevC.01  3-Jul-2019

 ----------------------------------------------------------------------
 # def2svp wb97xd scrf=(smd,solvent=acetonitrile) g09default scf=(xqc,m
 axcycle=64) force guess=read nosymm
 ----------------------------------------------------------------------

 ----------
 Title Card
 ----------
 Symbolic Z-matrix:
 Charge = -1 Multiplicity = 1

                          Input orientation:
 ---------------------------------------------------------------------
 Center     Atomic      Atomic             Coordinates (Angstroms)
 Number     Number       Type             X           Y           Z
 ---------------------------------------------------------------------
      1         17           0       -9.682168    8.275567   10.536705
      2          6           0       -8.385881    4.288117   12.199511
      3          6           0       -9.190906    3.962381   11.091426
      4          6           0      -10.098415    2.894871   11.223491
      5          6           0      -10.209403    2.191061   12.418907
      6          6           0       -9.402920    2.526922   13.507441
      7          6           0       -8.490575    3.578020   13.390751
      8          1           0       -7.671377    5.111352   12.134177
      9          1           0      -10.734708    2.629195   10.374372
     10          1           0      -10.933679    1.377379   12.504932
     11          1           0       -9.475915    1.965626   14.441314
     12          1           0       -7.861618    3.855162   14.240396
     13          6           0       -9.146500    4.715838    9.836865
     14          6           0       -8.440879    5.846497    9.624901
     15          1           0       -9.773459    4.322783    9.028241
     16          1           0       -8.470878    6.356629    8.661990
     17          1           0       -7.758585    6.256200   10.370054
     18          8           0       -0.974806   -1.822943    7.454066
     19          8           0       -8.373985   -1.322104    7.460778
     20          8           0       -7.007040    1.332354   10.488658
     21          8           0       -2.327883   -4.397924   10.555244
     22         74           0       -3.376190    0.713535    6.506095
     23         74           0       -5.995293   -3.845274    6.573356
     24         74           0       -3.582150    0.880320   11.395638
     25         74           0       -5.770042   -3.892530   11.468608
     26         74           0       -2.446631   -2.586912    6.375758
     27         74           0       -6.903257   -0.546057    6.348162
     28         74           0       -6.782503   -0.267210   11.590199
     29         74           0       -2.556115   -2.744115   11.622904
     30          8           0       -3.132869    1.909998    5.340890
     31          8           0       -6.137518   -5.094634    5.430941
     32          8           0       -2.656280    1.721505   12.545940
     33          8           0       -6.681444   -4.706041   12.647687
     34          8           0       -2.660262   -0.908624    5.587169
     35          8           0       -6.689952   -2.280363    5.621352
     36          8           0       -5.274035    0.539281   12.361308
     37          8           0       -4.055214   -3.546526   12.408628
     38          8           0        0.343643   -0.072515    9.268734
     39          8           0       -9.695762   -3.009938    9.317219
     40          8           0       -6.373010    3.412640    8.676741
     41          8           0       -2.981590   -6.494887    8.746453
     42          8           0       -1.757198    0.731791    7.483091
     43          8           0       -7.598799   -3.881401    7.549692
     44          8           0       -4.478877    2.193380   10.422832
     45          8           0       -4.865137   -5.241957   10.519243
     46          8           0       -1.620138   -3.520354    5.220356
     47          8           0       -7.778211    0.258348    5.149434
     48          8           0       -7.995820   -0.164049   12.773475
     49          8           0       -1.327298   -2.870701   12.789567
     50         74           0       -1.220884   -0.578785    8.838804
     51         74           0       -8.131476   -2.514428    8.874285
     52         74           0       -5.887777    1.842419    9.049609
     53         74           0       -3.469902   -4.920310    9.159115
     54          8           0       -4.219012   -3.124073    6.065574
     55          8           0       -5.129073   -0.053801    6.017511
     56          8           0       -6.164223   -2.020235   11.924572
     57          8           0       -3.155836   -0.993488   11.917340
     58          8           0       -4.340698    1.581515    7.848371
     59          8           0       -5.003793   -4.703424    7.920534
     60          8           0       -2.290366    0.554614   10.074022
     61          8           0       -7.052209   -3.622154   10.133210
     62          8           0       -2.570910   -3.915768    7.854509
     63          8           0       -6.796806    0.785944    7.800236
     64          8           0       -7.810229   -1.179906   10.156965
     65          8           0       -1.537984   -1.889603   10.148816
     66          8           0       -3.344832   -1.166490    8.014301
     67          8           0       -6.004290   -1.968486    8.035097
     68          8           0       -5.098215   -0.217902    9.944690
     69          8           0       -4.234082   -2.855419    9.975459
     70         19           0       -3.223110   -6.146566    5.648597
     71         19           0       -0.128108   -0.014113   12.316661
     72         19           0       -9.292971   -2.819561   12.402002
     73         23           0       -4.672460   -1.548083    8.989909
 ---------------------------------------------------------------------

 SCF Done:  E(RwB97XD) =  -7327.70221238     A.U. after   12 cycles

 Alpha  occ. eigenvalues -- -197.29324-130.00119-130.00031-130.00007-101.48350
 Alpha  occ. eigenvalues --  -22.62462 -19.33612 -19.33606 -19.33604 -19.33578
 Alpha  occ. eigenvalues --  -19.30733 -19.30696 -19.30693 -19.30691 -19.30667
 Alpha  occ. eigenvalues --  -19.30666 -19.30664 -19.30641 -19.30588 -19.30369
 Alpha  occ. eigenvalues --  -19.30348 -19.30173 -19.29364 -19.29353 -19.29344
 Alpha  occ. eigenvalues --  -19.29330 -19.29326 -19.29308 -19.29300 -19.29276
 Alpha  occ. eigenvalues --  -19.29235 -19.29214 -19.29206 -19.29195 -19.29183
 Alpha  occ. eigenvalues --  -19.29155 -19.29124 -19.29121 -19.29114 -19.29113
 Alpha  occ. eigenvalues --  -19.29102 -19.29086 -19.29038 -19.28997 -19.28983
 Alpha  occ. eigenvalues --  -19.28895 -19.11417 -19.11409 -19.11400 -13.37521
 Alpha  occ. eigenvalues --  -13.37424 -13.37404 -10.70450 -10.70443 -10.70443
 Alpha  occ. eigenvalues --  -10.70355 -10.70349 -10.70344 -10.70334 -10.70327
 Alpha  occ. eigenvalues --  -10.70326 -10.29856 -10.29314 -10.29294 -10.29036
 Alpha  occ. eigenvalues --  -10.28967 -10.28910 -10.28167 -10.27443  -9.38823
 Alpha  occ. eigenvalues --   -7.13653  -7.13597  -7.13593  -3.23308  -3.23302
 Alpha  occ. eigenvalues --   -3.23292  -3.23286  -3.23277  -3.23243  -3.23240
 Alpha  occ. eigenvalues --   -3.23239  -3.23222  -3.22959  -3.22941  -3.22763
 Alpha  occ. eigenvalues --   -2.91743  -1.94132  -1.94103  -1.94093  -1.87713
 Alpha  occ. eigenvalues --   -1.87664  -1.87653  -1.87616  -1.87488  -1.87465
 Alpha  occ. eigenvalues --   -1.87464  -1.87447  -1.87424  -1.87269  -1.87240
 Alpha  occ. eigenvalues --   -1.87089  -1.86628  -1.86509  -1.86499  -1.86483
 Alpha  occ. eigenvalues --   -1.86453  -1.86430  -1.86345  -1.86319  -1.86308
 Alpha  occ. eigenvalues --   -1.86295  -1.86276  -1.86261  -1.86144  -1.86131
 Alpha  occ. eigenvalues --   -1.86118  -1.86106  -1.86037  -1.86020  -1.85989
 Alpha  occ. eigenvalues --   -1.85916  -1.85894  -1.85797  -1.85715  -1.85659
 Alpha  occ. eigenvalues --   -1.51210  -1.51118  -1.51102  -1.13022  -1.11247
 Alpha  occ. eigenvalues --   -1.11163  -1.11162  -1.08969  -1.08534  -1.08501
 Alpha  occ. eigenvalues --   -1.08318  -1.07559  -1.07490  -1.07486  -1.06904
 Alpha  occ. eigenvalues --   -1.06891  -1.06873  -1.06305  -1.06280  -1.05354
 Alpha  occ. eigenvalues --   -1.05347  -1.04982  -1.04976  -1.04958  -1.04230
 Alpha  occ. eigenvalues --   -1.04224  -1.04191  -1.04047  -1.04016  -1.04001
 Alpha  occ. eigenvalues --   -1.03944  -1.03926  -1.03898  -1.03767  -1.03755
 Alpha  occ. eigenvalues --   -1.03622  -1.03572  -1.03309  -1.03275  -1.03153
 Alpha  occ. eigenvalues --   -1.03138  -1.03073  -1.02989  -0.94359  -0.86676
 Alpha  occ. eigenvalues --   -0.86593  -0.86581  -0.86504  -0.86485  -0.86484
 Alpha  occ. eigenvalues --   -0.86408  -0.86386  -0.86377  -0.86373  -0.82803
 Alpha  occ. eigenvalues --   -0.79715  -0.71591  -0.69650  -0.67987  -0.64595
 Alpha  occ. eigenvalues --   -0.63965  -0.63900  -0.63878  -0.63279  -0.63260
 Alpha  occ. eigenvalues --   -0.63150  -0.62938  -0.62660  -0.62598  -0.61947
 Alpha  occ. eigenvalues --   -0.61602  -0.61581  -0.61487  -0.61240  -0.61220
 Alpha  occ. eigenvalues --   -0.61177  -0.60418  -0.59470  -0.59444  -0.59431
 Alpha  occ. eigenvalues --   -0.59387  -0.59355  -0.58644  -0.58008  -0.57972
 Alpha  occ. eigenvalues --   -0.57893  -0.57052  -0.57029  -0.56998  -0.56277
 Alpha  occ. eigenvalues --   -0.56255  -0.56104  -0.55711  -0.54874  -0.54812
 Alpha  occ. eigenvalues --   -0.54768  -0.54517  -0.54238  -0.54116  -0.54103
 Alpha  occ. eigenvalues --   -0.54035  -0.53963  -0.53268  -0.53231  -0.53095
 Alpha  occ. eigenvalues --   -0.53052  -0.52913  -0.52741  -0.52711  -0.52657
 Alpha  occ. eigenvalues --   -0.52627  -0.52515  -0.52461  -0.52397  -0.51625
 Alpha  occ. eigenvalues --   -0.51609  -0.51375  -0.51340  -0.51311  -0.51259
 Alpha  occ. eigenvalues --   -0.51193  -0.51170  -0.50965  -0.50800  -0.50624
 Alpha  occ. eigenvalues --   -0.50599  -0.50597  -0.49946  -0.49926  -0.49301
 Alpha  occ. eigenvalues --   -0.49268  -0.49232  -0.49219  -0.49166  -0.49091
 Alpha  occ. eigenvalues --   -0.48905  -0.48084  -0.48037  -0.47923  -0.47628
 Alpha  occ. eigenvalues --   -0.47399  -0.47296  -0.47252  -0.47031  -0.46975
 Alpha  occ. eigenvalues --   -0.46903  -0.46612  -0.46609  -0.46482  -0.46213
 Alpha  occ. eigenvalues --   -0.46161  -0.46120  -0.45645  -0.45112  -0.44935
 Alpha  occ. eigenvalues --   -0.44899  -0.44205  -0.44159  -0.44042  -0.43520
 Alpha  occ. eigenvalues --   -0.43321  -0.43277  -0.43144  -0.43135  -0.43098
 Alpha  occ. eigenvalues --   -0.42765  -0.42741  -0.42704  -0.42621  -0.42607
 Alpha  occ. eigenvalues --   -0.42535  -0.42498  -0.42486  -0.42314  -0.42305
 Alpha  occ. eigenvalues --   -0.42279  -0.42054  -0.41922  -0.41881  -0.41868
 Alpha  occ. eigenvalues --   -0.41251  -0.41229  -0.41168  -0.41094  -0.40591
 Alpha  occ. eigenvalues --   -0.40577  -0.40568  -0.40352  -0.39459  -0.39446
 Alpha  occ. eigenvalues --   -0.37041  -0.32560  -0.29217  -0.25124  -0.25095
 Alpha  occ. eigenvalues --   -0.23463
 Alpha virt. eigenvalues --   -0.09369  -0.09166  -0.08356  -0.08309  -0.06909
 Alpha virt. eigenvalues --   -0.06886  -0.06804  -0.04381  -0.04102  -0.04050
 Alpha virt. eigenvalues --   -0.03730  -0.03502  -0.03444  -0.03227  -0.03083

 Mulliken charges:
               1
     1  Cl  -0.894840
     2  C   -0.082487
     3  C    0.048672
     4  C   -0.081583
     5  C   -0.034419
     6  C   -0.033078
     7  C   -0.048876
     8  H    0.028953
     9  H    0.029211
    10  H    0.041058
    11  H    0.037076
    12  H    0.039361
    13  C   -0.127847
    14  C    0.034199
    15  H    0.019547
    16  H    0.035206
    17  H    0.027577
    18  O   -0.661948
    19  O   -0.660195
    20  O   -0.654831
    21  O   -0.662536
    22  W    1.729970
    23  W    1.671009
    24  W    1.681893
    25  W    1.692848
    26  W    1.673581
    27  W    1.725233
    28  W    1.614739
    29  W    1.682822
    30  O   -0.320270
    31  O   -0.365669
    32  O   -0.366613
    33  O   -0.358077
    34  O   -0.661839
    35  O   -0.669723
    36  O   -0.659768
    37  O   -0.662031
    38  O   -0.366857
    39  O   -0.365800
    40  O   -0.298474
    41  O   -0.364711
    42  O   -0.669081
    43  O   -0.662515
    44  O   -0.657916
    45  O   -0.665251
    46  O   -0.366943
    47  O   -0.320352
    48  O   -0.359964
    49  O   -0.363518
    50  W    1.669576
    51  W    1.675515
    52  W    1.682465
    53  W    1.682087
    54  O   -0.723783
    55  O   -0.705716
    56  O   -0.724247
    57  O   -0.722057
    58  O   -0.703516
    59  O   -0.724715
    60  O   -0.723883
    61  O   -0.718712
    62  O   -0.723468
    63  O   -0.705333
    64  O   -0.724753
    65  O   -0.724999
    66  O   -0.800837
    67  O   -0.800127
    68  O   -0.797536
    69  O   -0.807936
    70  K    0.865024
    71  K    0.862068
    72  K    0.861915
    73  V    1.188024
 Sum of Mulliken charges =  -1.00000

 Dipole moment (field-independent basis, Debye):
    X=             50.1455    Y=            -51.3311    Z=            -38.9877  Tot=             81.6670
 Quadrupole moment (field-independent basis, Debye-Ang):
   XX=          -1042.1781   YY=           -888.0256   ZZ=           -920.8394
   XY=            447.8903   XZ=            449.7049   YZ=           -478.6963

 Normal termination of Gaussian 16 at Mon Jun  3 05:08:14 2024.
