 Gaussian 16, Revision C.01,
 Gaussian 16:  ES64L-G16RevC.01  3-Jul-2019

 ----------------------------------------------------------------------
 # def2svp wb97xd scrf=(smd,solvent=acetonitrile) g09default scf=(xqc,m
 axcycle=64) force guess=read nosymm
 ----------------------------------------------------------------------

 ----------
 Title Card
 ----------
 Symbolic Z-matrix:
 Charge = -1 Multiplicity = 1

                          Input orientation:
 ---------------------------------------------------------------------
 Center     Atomic      Atomic             Coordinates (Angstroms)
 Number     Number       Type             X           Y           Z
 ---------------------------------------------------------------------
      1         17           0       -9.682168    8.275567   10.536705
      2          6           0       -8.385881    4.288117   12.199511
      3          6           0       -9.190906    3.962381   11.091426
      4          6           0      -10.098415    2.894871   11.223491
      5          6           0      -10.209403    2.191061   12.418907
      6          6           0       -9.402920    2.526922   13.507441
      7          6           0       -8.490575    3.578020   13.390751
      8          1           0       -7.671377    5.111352   12.134177
      9          1           0      -10.734708    2.629195   10.374372
     10          1           0      -10.933679    1.377379   12.504932
     11          1           0       -9.475915    1.965626   14.441314
     12          1           0       -7.861618    3.855162   14.240396
     13          6           0       -9.146500    4.715838    9.836865
     14          6           0       -8.440879    5.846497    9.624901
     15          1           0       -9.773459    4.322783    9.028241
     16          1           0       -8.470878    6.356629    8.661990
     17          1           0       -7.758585    6.256200   10.370054
     18          8           0       -0.974806   -1.822943    7.454066
     19          8           0       -8.373985   -1.322104    7.460778
     20          8           0       -7.007040    1.332354   10.488658
     21          8           0       -2.327883   -4.397924   10.555244
     22         74           0       -3.376190    0.713535    6.506095
     23         74           0       -5.995293   -3.845274    6.573356
     24         74           0       -3.582150    0.880320   11.395638
     25         74           0       -5.770042   -3.892530   11.468608
     26         74           0       -2.446631   -2.586912    6.375758
     27         74           0       -6.903257   -0.546057    6.348162
     28         74           0       -6.782503   -0.267210   11.590199
     29         74           0       -2.556115   -2.744115   11.622904
     30          8           0       -3.132869    1.909998    5.340890
     31          8           0       -6.137518   -5.094634    5.430941
     32          8           0       -2.656280    1.721505   12.545940
     33          8           0       -6.681444   -4.706041   12.647687
     34          8           0       -2.660262   -0.908624    5.587169
     35          8           0       -6.689952   -2.280363    5.621352
     36          8           0       -5.274035    0.539281   12.361308
     37          8           0       -4.055214   -3.546526   12.408628
     38          8           0        0.343643   -0.072515    9.268734
     39          8           0       -9.695762   -3.009938    9.317219
     40          8           0       -6.373010    3.412640    8.676741
     41          8           0       -2.981590   -6.494887    8.746453
     42          8           0       -1.757198    0.731791    7.483091
     43          8           0       -7.598799   -3.881401    7.549692
     44          8           0       -4.478877    2.193380   10.422832
     45          8           0       -4.865137   -5.241957   10.519243
     46          8           0       -1.620138   -3.520354    5.220356
     47          8           0       -7.778211    0.258348    5.149434
     48          8           0       -7.995820   -0.164049   12.773475
     49          8           0       -1.327298   -2.870701   12.789567
     50         74           0       -1.220884   -0.578785    8.838804
     51         74           0       -8.131476   -2.514428    8.874285
     52         74           0       -5.887777    1.842419    9.049609
     53         74           0       -3.469902   -4.920310    9.159115
     54          8           0       -4.219012   -3.124073    6.065574
     55          8           0       -5.129073   -0.053801    6.017511
     56          8           0       -6.164223   -2.020235   11.924572
     57          8           0       -3.155836   -0.993488   11.917340
     58          8           0       -4.340698    1.581515    7.848371
     59          8           0       -5.003793   -4.703424    7.920534
     60          8           0       -2.290366    0.554614   10.074022
     61          8           0       -7.052209   -3.622154   10.133210
     62          8           0       -2.570910   -3.915768    7.854509
     63          8           0       -6.796806    0.785944    7.800236
     64          8           0       -7.810229   -1.179906   10.156965
     65          8           0       -1.537984   -1.889603   10.148816
     66          8           0       -3.344832   -1.166490    8.014301
     67          8           0       -6.004290   -1.968486    8.035097
     68          8           0       -5.098215   -0.217902    9.944690
     69          8           0       -4.234082   -2.855419    9.975459
     70         19           0       -3.223110   -6.146566    5.648597
     71         19           0       -0.128108   -0.014113   12.316661
     72         19           0       -9.292971   -2.819561   12.402002
     73         23           0       -4.672460   -1.548083    8.989909
 ---------------------------------------------------------------------

 SCF Done:  E(UwB97XD) =  -7327.70217027     A.U. after   56 cycles

 Alpha  occ. eigenvalues --  -19.24659 -18.94011 -18.92937 -18.92874 -13.36502
 Alpha  occ. eigenvalues --  -13.36494 -13.36407 -10.69429 -10.69425 -10.69424
 Alpha  occ. eigenvalues --  -10.69422 -10.69418 -10.69413 -10.69335 -10.69331
 Alpha  occ. eigenvalues --  -10.69329 -10.33089 -10.32313 -10.32032 -10.31038
 Alpha  occ. eigenvalues --  -10.31033 -10.31027 -10.30587 -10.30553  -9.52430
 Alpha  occ. eigenvalues --   -7.27314  -7.26974  -7.26971  -3.21095  -3.21083
 Alpha  occ. eigenvalues --   -3.21062  -3.21030  -3.21019  -3.21009  -3.20997
 Alpha  occ. eigenvalues --   -3.20991  -3.20986  -3.20849  -3.20840  -3.20818
 Alpha  occ. eigenvalues --   -2.78753  -1.85339  -1.85285  -1.85276  -1.85242
 Alpha  occ. eigenvalues --   -1.85139  -1.85075  -1.85059  -1.85035  -1.85021
 Alpha  occ. eigenvalues --   -1.85014  -1.84992  -1.84943  -1.84390  -1.84277
 Alpha  occ. eigenvalues --   -1.84269  -1.84249  -1.84214  -1.84203  -1.84147
 Alpha  occ. eigenvalues --   -1.84125  -1.84101  -1.84091  -1.84061  -1.84053
 Alpha  occ. eigenvalues --   -1.83949  -1.83912  -1.83883  -1.83878  -1.83857
 Alpha  occ. eigenvalues --   -1.83823  -1.83795  -1.83786  -1.83779  -1.83685
 Alpha  occ. eigenvalues --   -1.83677  -1.83663  -1.81921  -1.81590  -1.81556
 Alpha  occ. eigenvalues --   -1.50205  -1.50201  -1.50120  -1.08616  -1.06995
 Alpha  occ. eigenvalues --   -1.06954  -1.06915  -1.06007  -1.06001  -1.05978
 Alpha  occ. eigenvalues --   -1.04581  -1.04572  -1.04564  -1.03963  -1.03957
 Alpha  occ. eigenvalues --   -1.03697  -1.03357  -1.03328  -1.03307  -1.03054
 Alpha  occ. eigenvalues --   -1.03040  -1.02259  -1.02229  -1.02225  -1.02107
 Alpha  occ. eigenvalues --   -1.02030  -1.02007  -1.01917  -1.01909  -1.01802
 Alpha  occ. eigenvalues --   -1.01773  -1.01754  -1.01618  -1.01585  -1.01577
 Alpha  occ. eigenvalues --   -1.01315  -1.00823  -1.00793  -1.00739  -1.00735
 Alpha  occ. eigenvalues --   -0.99991  -0.99936  -0.99876  -0.96236  -0.89359
 Alpha  occ. eigenvalues --   -0.85651  -0.85647  -0.85575  -0.85508  -0.85494
 Alpha  occ. eigenvalues --   -0.85493  -0.85465  -0.85417  -0.85406  -0.84314
 Alpha  occ. eigenvalues --   -0.82499  -0.80952  -0.71962  -0.69656  -0.65126
 Alpha  occ. eigenvalues --   -0.62310  -0.61700  -0.61643  -0.61615  -0.60685
 Alpha  occ. eigenvalues --   -0.58980  -0.58955  -0.58946  -0.58896  -0.58822
 Alpha  occ. eigenvalues --   -0.58757  -0.58730  -0.58693  -0.58548  -0.57361
 Alpha  occ. eigenvalues --   -0.57323  -0.57289  -0.57005  -0.56814  -0.56495
 Alpha  occ. eigenvalues --   -0.56449  -0.56409  -0.56011  -0.55859  -0.55366
 Alpha  occ. eigenvalues --   -0.55357  -0.55318  -0.54428  -0.54193  -0.54165
 Alpha  occ. eigenvalues --   -0.54011  -0.53670  -0.53614  -0.53604  -0.52795
 Alpha  occ. eigenvalues --   -0.52661  -0.52610  -0.52496  -0.52460  -0.51496
 Alpha  occ. eigenvalues --   -0.51483  -0.51470  -0.51389  -0.51328  -0.50826
 Alpha  occ. eigenvalues --   -0.50572  -0.50541  -0.50488  -0.50405  -0.50344
 Alpha  occ. eigenvalues --   -0.50286  -0.50095  -0.50052  -0.50031  -0.49780
 Alpha  occ. eigenvalues --   -0.49683  -0.49655  -0.49515  -0.49497  -0.49303
 Alpha  occ. eigenvalues --   -0.49260  -0.49202  -0.49108  -0.49052  -0.48978
 Alpha  occ. eigenvalues --   -0.48732  -0.48564  -0.48543  -0.48485  -0.47725
 Alpha  occ. eigenvalues --   -0.47701  -0.47237  -0.46488  -0.46053  -0.46034
 Alpha  occ. eigenvalues --   -0.45887  -0.45876  -0.45763  -0.45638  -0.45227
 Alpha  occ. eigenvalues --   -0.45148  -0.45142  -0.44860  -0.44671  -0.44514
 Alpha  occ. eigenvalues --   -0.44485  -0.44471  -0.44290  -0.44272  -0.44254
 Alpha  occ. eigenvalues --   -0.43423  -0.43184  -0.42568  -0.42540  -0.42473
 Alpha  occ. eigenvalues --   -0.42322  -0.42198  -0.42173  -0.42165  -0.41640
 Alpha  occ. eigenvalues --   -0.41625  -0.41581  -0.41047  -0.41002  -0.40802
 Alpha  occ. eigenvalues --   -0.40785  -0.40775  -0.40435  -0.40422  -0.40384
 Alpha  occ. eigenvalues --   -0.40234  -0.40207  -0.40190  -0.40148  -0.39888
 Alpha  occ. eigenvalues --   -0.39361  -0.39283  -0.39258  -0.39169  -0.39056
 Alpha  occ. eigenvalues --   -0.38968  -0.38935  -0.38845  -0.38760  -0.38720
 Alpha  occ. eigenvalues --   -0.38340  -0.38318  -0.38284  -0.38138  -0.37219
 Alpha  occ. eigenvalues --   -0.37199  -0.34660  -0.34626  -0.33702  -0.30495
 Alpha  occ. eigenvalues --   -0.25713
 Alpha virt. eigenvalues --   -0.11951  -0.06228  -0.06180  -0.04756  -0.04715
 Alpha virt. eigenvalues --   -0.04621  -0.01529  -0.01406  -0.01352  -0.01098
 Alpha virt. eigenvalues --   -0.00924  -0.00890  -0.00853  -0.00163  -0.00090

  Beta  occ. eigenvalues -- -197.10744-129.99095-129.99094-129.99004-101.62421
  Beta  occ. eigenvalues --  -22.43175 -19.28522 -19.28516 -19.28455 -19.28445
  Beta  occ. eigenvalues --  -19.28397 -19.28379 -19.28368 -19.28357 -19.28339
  Beta  occ. eigenvalues --  -19.28274 -19.28236 -19.28165 -19.26976 -19.26957
  Beta  occ. eigenvalues --  -19.26944 -19.26908 -19.26906 -19.26901 -19.26870
  Beta  occ. eigenvalues --  -19.26865 -19.26858 -19.26857 -19.26846 -19.26842
  Beta  occ. eigenvalues --  -19.26841 -19.26836 -19.26824 -19.26811 -19.26806
  Beta  occ. eigenvalues --  -19.26800 -19.26788 -19.26782 -19.26781 -19.26729
  Beta  occ. eigenvalues --  -19.26682 -19.26658 -19.24717 -19.24680 -19.24650
  Beta  occ. eigenvalues --  -19.24633 -18.93665 -18.91505 -18.91381 -13.36502
  Beta  occ. eigenvalues --  -13.36494 -13.36407 -10.69429 -10.69425 -10.69424
  Beta  occ. eigenvalues --  -10.69422 -10.69418 -10.69413 -10.69335 -10.69331
  Beta  occ. eigenvalues --  -10.69329 -10.33376 -10.32429 -10.31978 -10.31156
  Beta  occ. eigenvalues --  -10.31139 -10.31138 -10.30527 -10.30492  -9.52877
  Beta  occ. eigenvalues --   -7.28715  -7.27279  -7.27276  -3.21090  -3.21082
  Beta  occ. eigenvalues --   -3.21062  -3.21024  -3.21019  -3.21003  -3.20992
  Beta  occ. eigenvalues --   -3.20985  -3.20980  -3.20849  -3.20835  -3.20813
  Beta  occ. eigenvalues --   -2.74693  -1.85333  -1.85281  -1.85270  -1.85234
  Beta  occ. eigenvalues --   -1.85135  -1.85069  -1.85054  -1.85029  -1.85013
  Beta  occ. eigenvalues --   -1.85004  -1.84987  -1.84935  -1.84387  -1.84275
  Beta  occ. eigenvalues --   -1.84265  -1.84246  -1.84211  -1.84199  -1.84144
  Beta  occ. eigenvalues --   -1.84123  -1.84098  -1.84088  -1.84058  -1.84050
  Beta  occ. eigenvalues --   -1.83947  -1.83908  -1.83880  -1.83875  -1.83854
  Beta  occ. eigenvalues --   -1.83820  -1.83792  -1.83783  -1.83775  -1.83682
  Beta  occ. eigenvalues --   -1.83674  -1.83660  -1.80582  -1.75964  -1.75692
  Beta  occ. eigenvalues --   -1.50205  -1.50201  -1.50120  -1.08599  -1.06974
  Beta  occ. eigenvalues --   -1.06934  -1.06889  -1.06005  -1.06000  -1.05976
  Beta  occ. eigenvalues --   -1.04582  -1.04573  -1.04563  -1.03963  -1.03958
  Beta  occ. eigenvalues --   -1.03630  -1.03324  -1.03290  -1.03277  -1.03052
  Beta  occ. eigenvalues --   -1.03032  -1.02241  -1.02210  -1.02202  -1.02099
  Beta  occ. eigenvalues --   -1.02026  -1.01994  -1.01912  -1.01895  -1.01797
  Beta  occ. eigenvalues --   -1.01771  -1.01750  -1.01613  -1.01582  -1.01561
  Beta  occ. eigenvalues --   -1.01315  -1.00805  -1.00771  -1.00738  -1.00733
  Beta  occ. eigenvalues --   -0.99854  -0.99795  -0.99754  -0.96470  -0.90042
  Beta  occ. eigenvalues --   -0.85651  -0.85647  -0.85575  -0.85508  -0.85494
  Beta  occ. eigenvalues --   -0.85493  -0.85464  -0.85417  -0.85406  -0.84571
  Beta  occ. eigenvalues --   -0.84371  -0.82715  -0.72223  -0.69780  -0.65378
  Beta  occ. eigenvalues --   -0.62310  -0.61699  -0.61642  -0.61615  -0.60897
  Beta  occ. eigenvalues --   -0.58975  -0.58952  -0.58945  -0.58805  -0.58763
  Beta  occ. eigenvalues --   -0.58735  -0.58716  -0.58671  -0.58548  -0.57334
  Beta  occ. eigenvalues --   -0.57174  -0.57121  -0.57035  -0.56920  -0.56496
  Beta  occ. eigenvalues --   -0.56418  -0.56373  -0.55814  -0.55603  -0.55345
  Beta  occ. eigenvalues --   -0.55336  -0.55321  -0.54627  -0.54184  -0.54155
  Beta  occ. eigenvalues --   -0.53998  -0.53639  -0.53596  -0.53556  -0.52864
  Beta  occ. eigenvalues --   -0.52663  -0.52596  -0.52476  -0.52455  -0.51484
  Beta  occ. eigenvalues --   -0.51457  -0.51450  -0.51327  -0.51268  -0.51028
  Beta  occ. eigenvalues --   -0.50561  -0.50474  -0.50467  -0.50341  -0.50247
  Beta  occ. eigenvalues --   -0.50183  -0.50062  -0.50051  -0.49999  -0.49729
  Beta  occ. eigenvalues --   -0.49662  -0.49623  -0.49506  -0.49487  -0.49302
  Beta  occ. eigenvalues --   -0.49237  -0.49201  -0.49073  -0.49034  -0.48953
  Beta  occ. eigenvalues --   -0.48724  -0.48562  -0.48541  -0.48478  -0.47922
  Beta  occ. eigenvalues --   -0.47685  -0.47640  -0.46064  -0.45909  -0.45879
  Beta  occ. eigenvalues --   -0.45813  -0.45680  -0.45578  -0.45226  -0.45167
  Beta  occ. eigenvalues --   -0.45149  -0.45058  -0.44859  -0.44670  -0.44486
  Beta  occ. eigenvalues --   -0.44472  -0.44435  -0.44283  -0.44237  -0.44214
  Beta  occ. eigenvalues --   -0.43417  -0.43291  -0.42521  -0.42481  -0.42438
  Beta  occ. eigenvalues --   -0.42289  -0.42249  -0.42137  -0.42125  -0.41646
  Beta  occ. eigenvalues --   -0.41614  -0.41561  -0.41447  -0.41051  -0.40966
  Beta  occ. eigenvalues --   -0.40774  -0.40739  -0.40712  -0.40420  -0.40410
  Beta  occ. eigenvalues --   -0.40369  -0.40188  -0.40176  -0.40161  -0.39830
  Beta  occ. eigenvalues --   -0.39663  -0.39359  -0.39187  -0.39126  -0.39123
  Beta  occ. eigenvalues --   -0.38938  -0.38905  -0.38848  -0.38743  -0.38710
  Beta  occ. eigenvalues --   -0.38672  -0.38333  -0.38310  -0.38278  -0.37641
  Beta  occ. eigenvalues --   -0.37219  -0.37195  -0.35589  -0.35550  -0.33992
  Beta  occ. eigenvalues --   -0.30876
  Beta virt. eigenvalues --   -0.06226  -0.06180  -0.04755  -0.04714  -0.04620
  Beta virt. eigenvalues --   -0.01525  -0.01401  -0.01347  -0.01091  -0.00919
  Beta virt. eigenvalues --   -0.00885  -0.00848  -0.00154  -0.00079  -0.00046

 Mulliken charges and spin densities:
               1          2
     1  Cl  -0.354993  -0.601232
     2  C   -0.036182  -0.098807
     3  C    0.011272   0.060481
     4  C   -0.035245  -0.094508
     5  C   -0.032206   0.059986
     6  C    0.009216  -0.118283
     7  C   -0.047068   0.060372
     8  H    0.049842   0.004254
     9  H    0.051219   0.004042
    10  H    0.056394  -0.002135
    11  H    0.057707   0.005185
    12  H    0.054386  -0.002116
    13  C    0.005820  -0.268496
    14  C   -0.037941  -0.017911
    15  H    0.076296   0.010991
    16  H    0.094958   0.000931
    17  H    0.090255  -0.001301
    18  O   -0.670840  -0.000560
    19  O   -0.669046  -0.000516
    20  O   -0.665633  -0.001465
    21  O   -0.671516  -0.000537
    22  W    1.713164   0.000354
    23  W    1.656613   0.000483
    24  W    1.669261   0.000163
    25  W    1.678654   0.000221
    26  W    1.659800   0.002733
    27  W    1.707321   0.002461
    28  W    1.606579   0.003324
    29  W    1.668509   0.002828
    30  O   -0.350190  -0.000525
    31  O   -0.394055  -0.000567
    32  O   -0.395184  -0.000616
    33  O   -0.386913  -0.000565
    34  O   -0.670226  -0.000297
    35  O   -0.677080  -0.000031
    36  O   -0.668705  -0.000141
    37  O   -0.670966  -0.000207
    38  O   -0.396803   0.002106
    39  O   -0.396004   0.002155
    40  O   -0.341066   0.000475
    41  O   -0.394866   0.002139
    42  O   -0.676607   0.000058
    43  O   -0.671105   0.000160
    44  O   -0.666577   0.000277
    45  O   -0.673519   0.000103
    46  O   -0.396921   0.002287
    47  O   -0.352089   0.002154
    48  O   -0.393434   0.001795
    49  O   -0.393706   0.002314
    50  W    1.655642   0.002840
    51  W    1.661132   0.002745
    52  W    1.675657   0.003875
    53  W    1.667361   0.002690
    54  O   -0.721730   0.000093
    55  O   -0.703968   0.000002
    56  O   -0.721154   0.000132
    57  O   -0.719982   0.000065
    58  O   -0.701379   0.000081
    59  O   -0.722102   0.000160
    60  O   -0.721501   0.000213
    61  O   -0.716475   0.000203
    62  O   -0.721851  -0.000179
    63  O   -0.704009  -0.000056
    64  O   -0.723853  -0.000191
    65  O   -0.723216  -0.000199
    66  O   -0.883090   0.005256
    67  O   -0.883187   0.007296
    68  O   -0.880580   0.007282
    69  O   -0.887765   0.006594
    70  K    0.851379   0.000195
    71  K    0.848205   0.000223
    72  K    0.848063   0.000218
    73  V    1.197823   0.936446
 Sum of Mulliken charges =  -1.00000   0.00000

 Dipole moment (field-independent basis, Debye):
    X=             27.8259    Y=            -13.8399    Z=            -30.8704  Tot=             43.8042
 Quadrupole moment (field-independent basis, Debye-Ang):
   XX=           -757.1645   YY=           -711.2889   ZZ=           -785.5097
   XY=            127.3529   XZ=            172.4881   YZ=            -94.5158

 Normal termination of Gaussian 16 at Mon Jun  3 04:57:25 2024.
