 Gaussian 16, Revision C.01,
 Gaussian 16:  ES64L-G16RevC.01  3-Jul-2019

 ----------------------------------------------------------------------
 # def2svp wb97xd scrf=(smd,solvent=acetonitrile) g09default scf=(xqc,m
 axcycle=64) force guess=read nosymm
 ----------------------------------------------------------------------

 ----------
 Title Card
 ----------
 Symbolic Z-matrix:
 Charge = -1 Multiplicity = 1

                          Input orientation:
 ---------------------------------------------------------------------
 Center     Atomic      Atomic             Coordinates (Angstroms)
 Number     Number       Type             X           Y           Z
 ---------------------------------------------------------------------
      1         17           0       -9.895371    7.635676   10.396371
      2          6           0       -8.312294    4.253973   12.241667
      3          6           0       -9.071073    3.933198   11.095029
      4          6           0      -10.007449    2.892802   11.199969
      5          6           0      -10.185321    2.193248   12.384796
      6          6           0       -9.426398    2.520563   13.513445
      7          6           0       -8.487999    3.551062   13.428364
      8          1           0       -7.576263    5.057600   12.198820
      9          1           0      -10.597601    2.628649   10.314580
     10          1           0      -10.911830    1.378990   12.433972
     11          1           0       -9.558908    1.969832   14.444414
     12          1           0       -7.883440    3.808449   14.303071
     13          6           0       -8.912006    4.626771    9.820905
     14          6           0       -8.091552    5.649557    9.575868
     15          1           0       -9.611689    4.317585    9.032269
     16          1           0       -8.054564    6.123579    8.594905
     17          1           0       -7.381247    6.040077   10.311693
     18          8           0       -1.009116   -1.759571    7.454548
     19          8           0       -8.411388   -1.328343    7.459934
     20          8           0       -7.061749    1.339689   10.498767
     21          8           0       -2.337179   -4.350258   10.567929
     22         74           0       -3.430944    0.754547    6.511207
     23         74           0       -6.014370   -3.828686    6.593025
     24         74           0       -3.635262    0.923606   11.395437
     25         74           0       -5.778200   -3.869298   11.465590
     26         74           0       -2.471358   -2.544490    6.374903
     27         74           0       -6.950392   -0.530809    6.347181
     28         74           0       -6.830315   -0.253350   11.601276
     29         74           0       -2.572382   -2.690104   11.631568
     30          8           0       -3.208364    1.951945    5.350312
     31          8           0       -6.135840   -5.089606    5.461299
     32          8           0       -2.702854    1.768012   12.536841
     33          8           0       -6.701288   -4.677413   12.637746
     34          8           0       -2.692285   -0.862869    5.602474
     35          8           0       -6.720659   -2.271697    5.644134
     36          8           0       -5.324274    0.572634   12.355460
     37          8           0       -4.067840   -3.515380   12.401388
     38          8           0        0.300027   -0.004555    9.287233
     39          8           0       -9.722562   -3.014769    9.349316
     40          8           0       -6.438642    3.417676    8.650718
     41          8           0       -2.963893   -6.449831    8.735467
     42          8           0       -1.811982    0.772238    7.490415
     43          8           0       -7.616628   -3.863068    7.564296
     44          8           0       -4.555033    2.219608   10.423586
     45          8           0       -4.854691   -5.205311   10.521647
     46          8           0       -1.650038   -3.482692    5.217947
     47          8           0       -7.817613    0.270470    5.145398
     48          8           0       -8.039820   -0.185352   12.790837
     49          8           0       -1.340184   -2.789282   12.796047
     50         74           0       -1.256403   -0.525032    8.842084
     51         74           0       -8.168281   -2.502109    8.884861
     52         74           0       -5.958857    1.859091    9.051524
     53         74           0       -3.457983   -4.882257    9.165095
     54          8           0       -4.243077   -3.075852    6.089323
     55          8           0       -5.170686   -0.049798    6.037324
     56          8           0       -6.170217   -1.992609   11.904624
     57          8           0       -3.210775   -0.956187   11.911353
     58          8           0       -4.401688    1.590280    7.865382
     59          8           0       -5.007562   -4.648575    7.947874
     60          8           0       -2.362117    0.587445   10.062701
     61          8           0       -7.050062   -3.594442   10.122292
     62          8           0       -2.574183   -3.859838    7.868402
     63          8           0       -6.856974    0.782765    7.809984
     64          8           0       -7.843065   -1.162677   10.154440
     65          8           0       -1.578719   -1.843761   10.144932
     66          8           0       -3.396775   -1.128166    8.023398
     67          8           0       -6.023154   -1.947001    8.050482
     68          8           0       -5.134542   -0.202947    9.942963
     69          8           0       -4.256890   -2.811636    9.975009
     70         19           0       -3.243392   -6.081218    5.693635
     71         19           0       -0.186464    0.022392   12.321965
     72         19           0       -9.229316   -2.922012   12.376532
     73         23           0       -4.705472   -1.519564    8.995637
 ---------------------------------------------------------------------

 SCF Done:  E(RwB97XD) =  -7327.69622384     A.U. after   14 cycles

 Alpha  occ. eigenvalues -- -197.27624-129.99956-129.99936-129.99838-101.47889
 Alpha  occ. eigenvalues --  -22.60897 -19.32670 -19.32667 -19.32666 -19.32627
 Alpha  occ. eigenvalues --  -19.30621 -19.30615 -19.30610 -19.30596 -19.30569
 Alpha  occ. eigenvalues --  -19.30540 -19.30517 -19.30510 -19.30407 -19.30307
 Alpha  occ. eigenvalues --  -19.30282 -19.29998 -19.29251 -19.29249 -19.29244
 Alpha  occ. eigenvalues --  -19.29222 -19.29216 -19.29214 -19.29185 -19.29182
 Alpha  occ. eigenvalues --  -19.29142 -19.29118 -19.29099 -19.29069 -19.29052
 Alpha  occ. eigenvalues --  -19.29044 -19.29014 -19.29001 -19.28989 -19.28978
 Alpha  occ. eigenvalues --  -19.28967 -19.28916 -19.28912 -19.28874 -19.28846
 Alpha  occ. eigenvalues --  -19.28718 -19.09834 -19.09825 -19.09822 -13.37351
 Alpha  occ. eigenvalues --  -13.37331 -13.37220 -10.70282 -10.70274 -10.70274
 Alpha  occ. eigenvalues --  -10.70263 -10.70254 -10.70254 -10.70154 -10.70144
 Alpha  occ. eigenvalues --  -10.70142 -10.29436 -10.29135 -10.29074 -10.28791
 Alpha  occ. eigenvalues --  -10.28643 -10.28589 -10.27636 -10.26370  -9.38376
 Alpha  occ. eigenvalues --   -7.13209  -7.13150  -7.13139  -3.23192  -3.23183
 Alpha  occ. eigenvalues --   -3.23180  -3.23177  -3.23163  -3.23138  -3.23123
 Alpha  occ. eigenvalues --   -3.23104  -3.23052  -3.22845  -3.22821  -3.22515
 Alpha  occ. eigenvalues --   -2.90523  -1.93028  -1.92987  -1.92966  -1.87615
 Alpha  occ. eigenvalues --   -1.87528  -1.87514  -1.87455  -1.87380  -1.87373
 Alpha  occ. eigenvalues --   -1.87317  -1.87309  -1.87257  -1.87193  -1.87161
 Alpha  occ. eigenvalues --   -1.86909  -1.86527  -1.86411  -1.86400  -1.86383
 Alpha  occ. eigenvalues --   -1.86351  -1.86314  -1.86243  -1.86218  -1.86200
 Alpha  occ. eigenvalues --   -1.86187  -1.86148  -1.86133  -1.86053  -1.86025
 Alpha  occ. eigenvalues --   -1.86018  -1.85991  -1.85947  -1.85895  -1.85876
 Alpha  occ. eigenvalues --   -1.85799  -1.85782  -1.85685  -1.85518  -1.85435
 Alpha  occ. eigenvalues --   -1.51057  -1.51038  -1.50930  -1.12490  -1.10671
 Alpha  occ. eigenvalues --   -1.10579  -1.10561  -1.08629  -1.08408  -1.08380
 Alpha  occ. eigenvalues --   -1.08170  -1.07243  -1.07187  -1.07173  -1.06798
 Alpha  occ. eigenvalues --   -1.06787  -1.06752  -1.06181  -1.06172  -1.05306
 Alpha  occ. eigenvalues --   -1.05284  -1.04892  -1.04886  -1.04866  -1.04158
 Alpha  occ. eigenvalues --   -1.04148  -1.04105  -1.03977  -1.03954  -1.03944
 Alpha  occ. eigenvalues --   -1.03857  -1.03821  -1.03805  -1.03674  -1.03625
 Alpha  occ. eigenvalues --   -1.03540  -1.03487  -1.03271  -1.03224  -1.03079
 Alpha  occ. eigenvalues --   -1.03059  -1.02999  -1.02869  -0.94089  -0.86554
 Alpha  occ. eigenvalues --   -0.86538  -0.86440  -0.86338  -0.86335  -0.86320
 Alpha  occ. eigenvalues --   -0.86314  -0.86216  -0.86202  -0.86172  -0.82584
 Alpha  occ. eigenvalues --   -0.79485  -0.71162  -0.69459  -0.67676  -0.64515
 Alpha  occ. eigenvalues --   -0.63864  -0.63796  -0.63776  -0.62815  -0.62793
 Alpha  occ. eigenvalues --   -0.62698  -0.62673  -0.62306  -0.62259  -0.61463
 Alpha  occ. eigenvalues --   -0.61437  -0.61422  -0.61309  -0.61188  -0.61185
 Alpha  occ. eigenvalues --   -0.61134  -0.60349  -0.59281  -0.59211  -0.59151
 Alpha  occ. eigenvalues --   -0.59096  -0.59079  -0.58380  -0.57943  -0.57914
 Alpha  occ. eigenvalues --   -0.57824  -0.56743  -0.56712  -0.56659  -0.56107
 Alpha  occ. eigenvalues --   -0.56092  -0.55941  -0.55606  -0.54772  -0.54730
 Alpha  occ. eigenvalues --   -0.54706  -0.54297  -0.54185  -0.54091  -0.54040
 Alpha  occ. eigenvalues --   -0.53853  -0.53833  -0.53377  -0.53305  -0.53003
 Alpha  occ. eigenvalues --   -0.52951  -0.52840  -0.52700  -0.52673  -0.52629
 Alpha  occ. eigenvalues --   -0.52605  -0.52514  -0.52450  -0.52201  -0.51363
 Alpha  occ. eigenvalues --   -0.51322  -0.51191  -0.51159  -0.51112  -0.51051
 Alpha  occ. eigenvalues --   -0.51026  -0.50927  -0.50852  -0.50731  -0.50670
 Alpha  occ. eigenvalues --   -0.50647  -0.50544  -0.49878  -0.49872  -0.49196
 Alpha  occ. eigenvalues --   -0.49168  -0.49119  -0.49089  -0.49016  -0.48997
 Alpha  occ. eigenvalues --   -0.48698  -0.47867  -0.47846  -0.47724  -0.47391
 Alpha  occ. eigenvalues --   -0.47253  -0.47226  -0.47153  -0.46921  -0.46827
 Alpha  occ. eigenvalues --   -0.46742  -0.46439  -0.46408  -0.46331  -0.45887
 Alpha  occ. eigenvalues --   -0.45835  -0.45789  -0.45353  -0.44978  -0.44811
 Alpha  occ. eigenvalues --   -0.44753  -0.44024  -0.43969  -0.43845  -0.43243
 Alpha  occ. eigenvalues --   -0.43185  -0.43134  -0.43046  -0.43037  -0.42966
 Alpha  occ. eigenvalues --   -0.42628  -0.42611  -0.42588  -0.42462  -0.42456
 Alpha  occ. eigenvalues --   -0.42406  -0.42393  -0.42335  -0.42253  -0.42241
 Alpha  occ. eigenvalues --   -0.42186  -0.41967  -0.41897  -0.41816  -0.41801
 Alpha  occ. eigenvalues --   -0.41174  -0.41166  -0.41016  -0.40967  -0.40492
 Alpha  occ. eigenvalues --   -0.40459  -0.40426  -0.39845  -0.39357  -0.39321
 Alpha  occ. eigenvalues --   -0.36598  -0.32380  -0.29013  -0.24839  -0.24759
 Alpha  occ. eigenvalues --   -0.22256
 Alpha virt. eigenvalues --   -0.08270  -0.08212  -0.07949  -0.07795  -0.06776
 Alpha virt. eigenvalues --   -0.06771  -0.06661  -0.03649  -0.03546  -0.03466
 Alpha virt. eigenvalues --   -0.03271  -0.03038  -0.02998  -0.02858  -0.02577

 Mulliken charges:
               1
     1  Cl  -0.896126
     2  C   -0.087485
     3  C    0.042292
     4  C   -0.083351
     5  C   -0.033701
     6  C   -0.036462
     7  C   -0.050394
     8  H    0.022439
     9  H    0.026246
    10  H    0.038170
    11  H    0.033449
    12  H    0.037293
    13  C   -0.077316
    14  C    0.046271
    15  H    0.004628
    16  H    0.027340
    17  H    0.031115
    18  O   -0.660283
    19  O   -0.658545
    20  O   -0.652156
    21  O   -0.660625
    22  W    1.733162
    23  W    1.672125
    24  W    1.682790
    25  W    1.693210
    26  W    1.670147
    27  W    1.725385
    28  W    1.616265
    29  W    1.681172
    30  O   -0.318430
    31  O   -0.369396
    32  O   -0.368592
    33  O   -0.365872
    34  O   -0.661299
    35  O   -0.669340
    36  O   -0.659472
    37  O   -0.662042
    38  O   -0.369815
    39  O   -0.370887
    40  O   -0.286662
    41  O   -0.368355
    42  O   -0.668758
    43  O   -0.660781
    44  O   -0.657283
    45  O   -0.663574
    46  O   -0.370533
    47  O   -0.319596
    48  O   -0.357740
    49  O   -0.367716
    50  W    1.667603
    51  W    1.670994
    52  W    1.667898
    53  W    1.678129
    54  O   -0.721255
    55  O   -0.705406
    56  O   -0.723679
    57  O   -0.718947
    58  O   -0.702710
    59  O   -0.724216
    60  O   -0.722272
    61  O   -0.720048
    62  O   -0.721690
    63  O   -0.706372
    64  O   -0.720831
    65  O   -0.724960
    66  O   -0.799442
    67  O   -0.798620
    68  O   -0.796399
    69  O   -0.810224
    70  K    0.858744
    71  K    0.858194
    72  K    0.853630
    73  V    1.210967
 Sum of Mulliken charges =  -1.00000

 Dipole moment (field-independent basis, Debye):
    X=             51.2058    Y=            -47.7653    Z=            -38.8028  Tot=             80.0576
 Quadrupole moment (field-independent basis, Debye-Ang):
   XX=          -1065.9858   YY=           -841.7443   ZZ=           -918.3742
   XY=            424.4745   XZ=            459.6643   YZ=           -441.2727

 Normal termination of Gaussian 16 at Sat Jun  1 14:12:04 2024.
