 Gaussian 16, Revision C.01,
 Gaussian 16:  ES64L-G16RevC.01  3-Jul-2019

 ----------------------------------------------------------------------
 # def2svp wb97xd scrf=(smd,solvent=acetonitrile) g09default scf=(xqc,m
 axcycle=64) force guess=read nosymm
 ----------------------------------------------------------------------

 ----------
 Title Card
 ----------
 Symbolic Z-matrix:
 Charge = -1 Multiplicity = 1

                          Input orientation:
 ---------------------------------------------------------------------
 Center     Atomic      Atomic             Coordinates (Angstroms)
 Number     Number       Type             X           Y           Z
 ---------------------------------------------------------------------
      1         17           0       -9.895371    7.635676   10.396371
      2          6           0       -8.312294    4.253973   12.241667
      3          6           0       -9.071073    3.933198   11.095029
      4          6           0      -10.007449    2.892802   11.199969
      5          6           0      -10.185321    2.193248   12.384796
      6          6           0       -9.426398    2.520563   13.513445
      7          6           0       -8.487999    3.551062   13.428364
      8          1           0       -7.576263    5.057600   12.198820
      9          1           0      -10.597601    2.628649   10.314580
     10          1           0      -10.911830    1.378990   12.433972
     11          1           0       -9.558908    1.969832   14.444414
     12          1           0       -7.883440    3.808449   14.303071
     13          6           0       -8.912006    4.626771    9.820905
     14          6           0       -8.091552    5.649557    9.575868
     15          1           0       -9.611689    4.317585    9.032269
     16          1           0       -8.054564    6.123579    8.594905
     17          1           0       -7.381247    6.040077   10.311693
     18          8           0       -1.009116   -1.759571    7.454548
     19          8           0       -8.411388   -1.328343    7.459934
     20          8           0       -7.061749    1.339689   10.498767
     21          8           0       -2.337179   -4.350258   10.567929
     22         74           0       -3.430944    0.754547    6.511207
     23         74           0       -6.014370   -3.828686    6.593025
     24         74           0       -3.635262    0.923606   11.395437
     25         74           0       -5.778200   -3.869298   11.465590
     26         74           0       -2.471358   -2.544490    6.374903
     27         74           0       -6.950392   -0.530809    6.347181
     28         74           0       -6.830315   -0.253350   11.601276
     29         74           0       -2.572382   -2.690104   11.631568
     30          8           0       -3.208364    1.951945    5.350312
     31          8           0       -6.135840   -5.089606    5.461299
     32          8           0       -2.702854    1.768012   12.536841
     33          8           0       -6.701288   -4.677413   12.637746
     34          8           0       -2.692285   -0.862869    5.602474
     35          8           0       -6.720659   -2.271697    5.644134
     36          8           0       -5.324274    0.572634   12.355460
     37          8           0       -4.067840   -3.515380   12.401388
     38          8           0        0.300027   -0.004555    9.287233
     39          8           0       -9.722562   -3.014769    9.349316
     40          8           0       -6.438642    3.417676    8.650718
     41          8           0       -2.963893   -6.449831    8.735467
     42          8           0       -1.811982    0.772238    7.490415
     43          8           0       -7.616628   -3.863068    7.564296
     44          8           0       -4.555033    2.219608   10.423586
     45          8           0       -4.854691   -5.205311   10.521647
     46          8           0       -1.650038   -3.482692    5.217947
     47          8           0       -7.817613    0.270470    5.145398
     48          8           0       -8.039820   -0.185352   12.790837
     49          8           0       -1.340184   -2.789282   12.796047
     50         74           0       -1.256403   -0.525032    8.842084
     51         74           0       -8.168281   -2.502109    8.884861
     52         74           0       -5.958857    1.859091    9.051524
     53         74           0       -3.457983   -4.882257    9.165095
     54          8           0       -4.243077   -3.075852    6.089323
     55          8           0       -5.170686   -0.049798    6.037324
     56          8           0       -6.170217   -1.992609   11.904624
     57          8           0       -3.210775   -0.956187   11.911353
     58          8           0       -4.401688    1.590280    7.865382
     59          8           0       -5.007562   -4.648575    7.947874
     60          8           0       -2.362117    0.587445   10.062701
     61          8           0       -7.050062   -3.594442   10.122292
     62          8           0       -2.574183   -3.859838    7.868402
     63          8           0       -6.856974    0.782765    7.809984
     64          8           0       -7.843065   -1.162677   10.154440
     65          8           0       -1.578719   -1.843761   10.144932
     66          8           0       -3.396775   -1.128166    8.023398
     67          8           0       -6.023154   -1.947001    8.050482
     68          8           0       -5.134542   -0.202947    9.942963
     69          8           0       -4.256890   -2.811636    9.975009
     70         19           0       -3.243392   -6.081218    5.693635
     71         19           0       -0.186464    0.022392   12.321965
     72         19           0       -9.229316   -2.922012   12.376532
     73         23           0       -4.705472   -1.519564    8.995637
 ---------------------------------------------------------------------

 SCF Done:  E(UwB97XD) =  -7327.69566235     A.U. after   36 cycles

 Alpha  occ. eigenvalues --  -19.23774 -18.92250 -18.91167 -18.91120 -13.36338
 Alpha  occ. eigenvalues --  -13.36316 -13.36269 -10.69267 -10.69261 -10.69260
 Alpha  occ. eigenvalues --  -10.69245 -10.69239 -10.69239 -10.69200 -10.69193
 Alpha  occ. eigenvalues --  -10.69191 -10.32855 -10.32537 -10.31697 -10.30868
 Alpha  occ. eigenvalues --  -10.30840 -10.30756 -10.30450 -10.30362  -9.51563
 Alpha  occ. eigenvalues --   -7.26423  -7.26134  -7.26120  -3.21002  -3.20989
 Alpha  occ. eigenvalues --   -3.20965  -3.20955  -3.20940  -3.20925  -3.20916
 Alpha  occ. eigenvalues --   -3.20890  -3.20868  -3.20822  -3.20775  -3.20756
 Alpha  occ. eigenvalues --   -2.77400  -1.85265  -1.85212  -1.85182  -1.85151
 Alpha  occ. eigenvalues --   -1.85055  -1.85022  -1.84994  -1.84970  -1.84965
 Alpha  occ. eigenvalues --   -1.84933  -1.84903  -1.84883  -1.84317  -1.84206
 Alpha  occ. eigenvalues --   -1.84193  -1.84181  -1.84144  -1.84128  -1.84083
 Alpha  occ. eigenvalues --   -1.84049  -1.84031  -1.84018  -1.83990  -1.83980
 Alpha  occ. eigenvalues --   -1.83878  -1.83844  -1.83822  -1.83815  -1.83803
 Alpha  occ. eigenvalues --   -1.83753  -1.83739  -1.83721  -1.83714  -1.83635
 Alpha  occ. eigenvalues --   -1.83629  -1.83603  -1.80695  -1.80347  -1.80320
 Alpha  occ. eigenvalues --   -1.50059  -1.50037  -1.49993  -1.08511  -1.06905
 Alpha  occ. eigenvalues --   -1.06864  -1.06817  -1.05950  -1.05935  -1.05900
 Alpha  occ. eigenvalues --   -1.04531  -1.04523  -1.04502  -1.03913  -1.03875
 Alpha  occ. eigenvalues --   -1.03260  -1.03194  -1.03148  -1.03118  -1.03051
 Alpha  occ. eigenvalues --   -1.03014  -1.02152  -1.02136  -1.02088  -1.02036
 Alpha  occ. eigenvalues --   -1.01999  -1.01975  -1.01939  -1.01903  -1.01787
 Alpha  occ. eigenvalues --   -1.01708  -1.01696  -1.01632  -1.01570  -1.01538
 Alpha  occ. eigenvalues --   -1.01294  -1.00763  -1.00720  -1.00698  -1.00559
 Alpha  occ. eigenvalues --   -0.99462  -0.99390  -0.99307  -0.96087  -0.89460
 Alpha  occ. eigenvalues --   -0.85535  -0.85510  -0.85479  -0.85352  -0.85347
 Alpha  occ. eigenvalues --   -0.85330  -0.85327  -0.85291  -0.85274  -0.84172
 Alpha  occ. eigenvalues --   -0.82516  -0.80333  -0.71917  -0.69450  -0.65013
 Alpha  occ. eigenvalues --   -0.62281  -0.61642  -0.61595  -0.61556  -0.60595
 Alpha  occ. eigenvalues --   -0.58981  -0.58968  -0.58958  -0.58833  -0.58778
 Alpha  occ. eigenvalues --   -0.58757  -0.58749  -0.58689  -0.58486  -0.57150
 Alpha  occ. eigenvalues --   -0.57110  -0.57078  -0.56910  -0.56797  -0.56317
 Alpha  occ. eigenvalues --   -0.56291  -0.56237  -0.55746  -0.55610  -0.55263
 Alpha  occ. eigenvalues --   -0.55257  -0.55227  -0.54430  -0.54128  -0.54069
 Alpha  occ. eigenvalues --   -0.53920  -0.53555  -0.53499  -0.53472  -0.52667
 Alpha  occ. eigenvalues --   -0.52589  -0.52566  -0.52522  -0.52490  -0.51524
 Alpha  occ. eigenvalues --   -0.51496  -0.51475  -0.51452  -0.51400  -0.50779
 Alpha  occ. eigenvalues --   -0.50514  -0.50453  -0.50415  -0.50338  -0.50303
 Alpha  occ. eigenvalues --   -0.50264  -0.50126  -0.50104  -0.50028  -0.49801
 Alpha  occ. eigenvalues --   -0.49739  -0.49700  -0.49327  -0.49290  -0.49147
 Alpha  occ. eigenvalues --   -0.49108  -0.49066  -0.49001  -0.48950  -0.48926
 Alpha  occ. eigenvalues --   -0.48811  -0.48659  -0.48609  -0.48548  -0.47698
 Alpha  occ. eigenvalues --   -0.47663  -0.47094  -0.46341  -0.45915  -0.45898
 Alpha  occ. eigenvalues --   -0.45707  -0.45653  -0.45614  -0.45487  -0.45163
 Alpha  occ. eigenvalues --   -0.45135  -0.45126  -0.44803  -0.44585  -0.44348
 Alpha  occ. eigenvalues --   -0.44301  -0.44296  -0.44120  -0.44093  -0.44026
 Alpha  occ. eigenvalues --   -0.43194  -0.43149  -0.42374  -0.42358  -0.42299
 Alpha  occ. eigenvalues --   -0.42121  -0.42013  -0.42002  -0.41879  -0.41571
 Alpha  occ. eigenvalues --   -0.41543  -0.41532  -0.41008  -0.40933  -0.40743
 Alpha  occ. eigenvalues --   -0.40699  -0.40679  -0.40375  -0.40340  -0.40304
 Alpha  occ. eigenvalues --   -0.40192  -0.40163  -0.40135  -0.40105  -0.39826
 Alpha  occ. eigenvalues --   -0.39258  -0.39087  -0.39074  -0.39036  -0.38841
 Alpha  occ. eigenvalues --   -0.38797  -0.38716  -0.38632  -0.38414  -0.38384
 Alpha  occ. eigenvalues --   -0.38227  -0.38196  -0.38176  -0.37966  -0.37181
 Alpha  occ. eigenvalues --   -0.37103  -0.34104  -0.34060  -0.33533  -0.30765
 Alpha  occ. eigenvalues --   -0.24199
 Alpha virt. eigenvalues --   -0.10341  -0.06191  -0.06120  -0.04679  -0.04646
 Alpha virt. eigenvalues --   -0.04523  -0.01368  -0.01279  -0.01220  -0.00956
 Alpha virt. eigenvalues --   -0.00716  -0.00695  -0.00631  -0.00035   0.00063

  Beta  occ. eigenvalues -- -197.08871-129.98937-129.98915-129.98880-101.61545
  Beta  occ. eigenvalues --  -22.41440 -19.28451 -19.28428 -19.28426 -19.28342
  Beta  occ. eigenvalues --  -19.28325 -19.28323 -19.28311 -19.28292 -19.28291
  Beta  occ. eigenvalues --  -19.28269 -19.28224 -19.28163 -19.26943 -19.26867
  Beta  occ. eigenvalues --  -19.26857 -19.26856 -19.26846 -19.26831 -19.26817
  Beta  occ. eigenvalues --  -19.26812 -19.26810 -19.26805 -19.26801 -19.26797
  Beta  occ. eigenvalues --  -19.26788 -19.26772 -19.26761 -19.26745 -19.26736
  Beta  occ. eigenvalues --  -19.26732 -19.26715 -19.26693 -19.26676 -19.26652
  Beta  occ. eigenvalues --  -19.26610 -19.26570 -19.23854 -19.23785 -19.23777
  Beta  occ. eigenvalues --  -19.23748 -18.91910 -18.89737 -18.89646 -13.36338
  Beta  occ. eigenvalues --  -13.36316 -13.36269 -10.69267 -10.69261 -10.69260
  Beta  occ. eigenvalues --  -10.69245 -10.69239 -10.69239 -10.69200 -10.69193
  Beta  occ. eigenvalues --  -10.69191 -10.33169 -10.32714 -10.31631 -10.30968
  Beta  occ. eigenvalues --  -10.30956 -10.30854 -10.30394 -10.30303  -9.51996
  Beta  occ. eigenvalues --   -7.27769  -7.26430  -7.26415  -3.21001  -3.20982
  Beta  occ. eigenvalues --   -3.20964  -3.20955  -3.20933  -3.20918  -3.20909
  Beta  occ. eigenvalues --   -3.20883  -3.20861  -3.20820  -3.20775  -3.20750
  Beta  occ. eigenvalues --   -2.73379  -1.85261  -1.85206  -1.85178  -1.85144
  Beta  occ. eigenvalues --   -1.85054  -1.85014  -1.84989  -1.84965  -1.84959
  Beta  occ. eigenvalues --   -1.84922  -1.84893  -1.84872  -1.84314  -1.84204
  Beta  occ. eigenvalues --   -1.84189  -1.84178  -1.84140  -1.84124  -1.84080
  Beta  occ. eigenvalues --   -1.84046  -1.84027  -1.84014  -1.83986  -1.83976
  Beta  occ. eigenvalues --   -1.83875  -1.83841  -1.83820  -1.83811  -1.83801
  Beta  occ. eigenvalues --   -1.83749  -1.83736  -1.83718  -1.83710  -1.83633
  Beta  occ. eigenvalues --   -1.83626  -1.83600  -1.79384  -1.74745  -1.74550
  Beta  occ. eigenvalues --   -1.50059  -1.50037  -1.49993  -1.08497  -1.06888
  Beta  occ. eigenvalues --   -1.06848  -1.06795  -1.05948  -1.05934  -1.05898
  Beta  occ. eigenvalues --   -1.04533  -1.04524  -1.04500  -1.03915  -1.03874
  Beta  occ. eigenvalues --   -1.03210  -1.03179  -1.03129  -1.03086  -1.03043
  Beta  occ. eigenvalues --   -1.03003  -1.02139  -1.02120  -1.02070  -1.02026
  Beta  occ. eigenvalues --   -1.01987  -1.01961  -1.01940  -1.01895  -1.01781
  Beta  occ. eigenvalues --   -1.01705  -1.01690  -1.01634  -1.01564  -1.01527
  Beta  occ. eigenvalues --   -1.01294  -1.00763  -1.00720  -1.00698  -1.00499
  Beta  occ. eigenvalues --   -0.99301  -0.99202  -0.99162  -0.96318  -0.90282
  Beta  occ. eigenvalues --   -0.85535  -0.85510  -0.85479  -0.85352  -0.85347
  Beta  occ. eigenvalues --   -0.85329  -0.85327  -0.85291  -0.85274  -0.84315
  Beta  occ. eigenvalues --   -0.83809  -0.82598  -0.72219  -0.69565  -0.65288
  Beta  occ. eigenvalues --   -0.62281  -0.61642  -0.61595  -0.61556  -0.60808
  Beta  occ. eigenvalues --   -0.58977  -0.58967  -0.58957  -0.58777  -0.58752
  Beta  occ. eigenvalues --   -0.58737  -0.58709  -0.58660  -0.58486  -0.57144
  Beta  occ. eigenvalues --   -0.57107  -0.56959  -0.56922  -0.56770  -0.56315
  Beta  occ. eigenvalues --   -0.56269  -0.56211  -0.55568  -0.55370  -0.55246
  Beta  occ. eigenvalues --   -0.55233  -0.55220  -0.54632  -0.54123  -0.54062
  Beta  occ. eigenvalues --   -0.53914  -0.53532  -0.53474  -0.53438  -0.52698
  Beta  occ. eigenvalues --   -0.52606  -0.52576  -0.52516  -0.52484  -0.51511
  Beta  occ. eigenvalues --   -0.51475  -0.51453  -0.51444  -0.51362  -0.51025
  Beta  occ. eigenvalues --   -0.50442  -0.50412  -0.50390  -0.50306  -0.50226
  Beta  occ. eigenvalues --   -0.50146  -0.50095  -0.50073  -0.49992  -0.49746
  Beta  occ. eigenvalues --   -0.49696  -0.49681  -0.49323  -0.49282  -0.49148
  Beta  occ. eigenvalues --   -0.49099  -0.49070  -0.48978  -0.48945  -0.48915
  Beta  occ. eigenvalues --   -0.48799  -0.48648  -0.48633  -0.48539  -0.47836
  Beta  occ. eigenvalues --   -0.47629  -0.47576  -0.45839  -0.45763  -0.45713
  Beta  occ. eigenvalues --   -0.45640  -0.45571  -0.45437  -0.45167  -0.45142
  Beta  occ. eigenvalues --   -0.45126  -0.44922  -0.44803  -0.44585  -0.44335
  Beta  occ. eigenvalues --   -0.44288  -0.44285  -0.44077  -0.44052  -0.44007
  Beta  occ. eigenvalues --   -0.43257  -0.43180  -0.42484  -0.42305  -0.42266
  Beta  occ. eigenvalues --   -0.42154  -0.41969  -0.41948  -0.41944  -0.41682
  Beta  occ. eigenvalues --   -0.41559  -0.41505  -0.41450  -0.41007  -0.40891
  Beta  occ. eigenvalues --   -0.40682  -0.40648  -0.40631  -0.40340  -0.40325
  Beta  occ. eigenvalues --   -0.40280  -0.40163  -0.40148  -0.40118  -0.39763
  Beta  occ. eigenvalues --   -0.39490  -0.39258  -0.39074  -0.39013  -0.38956
  Beta  occ. eigenvalues --   -0.38740  -0.38681  -0.38649  -0.38382  -0.38358
  Beta  occ. eigenvalues --   -0.38265  -0.38208  -0.38153  -0.38073  -0.37183
  Beta  occ. eigenvalues --   -0.37101  -0.36578  -0.34948  -0.34901  -0.33810
  Beta  occ. eigenvalues --   -0.30316
  Beta virt. eigenvalues --   -0.06191  -0.06120  -0.04678  -0.04644  -0.04522
  Beta virt. eigenvalues --   -0.01366  -0.01275  -0.01216  -0.00950  -0.00710
  Beta virt. eigenvalues --   -0.00695  -0.00630  -0.00039   0.00069   0.00117

 Mulliken charges and spin densities:
               1          2
     1  Cl  -0.385125  -0.565684
     2  C   -0.034949  -0.094709
     3  C    0.007232   0.067027
     4  C   -0.034804  -0.089682
     5  C   -0.032395   0.058060
     6  C    0.007048  -0.108620
     7  C   -0.049205   0.056545
     8  H    0.045083   0.004002
     9  H    0.049407   0.003865
    10  H    0.053997  -0.002084
    11  H    0.054605   0.004761
    12  H    0.053112  -0.001993
    13  C    0.012346  -0.270993
    14  C   -0.005084  -0.073476
    15  H    0.073959   0.011609
    16  H    0.094878   0.003310
    17  H    0.097036   0.002959
    18  O   -0.668731  -0.000504
    19  O   -0.667094  -0.000437
    20  O   -0.662922  -0.001923
    21  O   -0.669282  -0.000476
    22  W    1.715716   0.000361
    23  W    1.656609   0.000581
    24  W    1.669755   0.000236
    25  W    1.678187   0.000217
    26  W    1.654905   0.003206
    27  W    1.706097   0.002819
    28  W    1.607045   0.003763
    29  W    1.665617   0.003304
    30  O   -0.347470  -0.000519
    31  O   -0.397405  -0.000557
    32  O   -0.396365  -0.000606
    33  O   -0.394044  -0.000550
    34  O   -0.669126  -0.000356
    35  O   -0.675917  -0.000053
    36  O   -0.667751  -0.000179
    37  O   -0.670524  -0.000256
    38  O   -0.399218   0.002208
    39  O   -0.400482   0.002256
    40  O   -0.338287  -0.001772
    41  O   -0.397956   0.002209
    42  O   -0.675601   0.000054
    43  O   -0.668886   0.000170
    44  O   -0.665423   0.000322
    45  O   -0.671384   0.000090
    46  O   -0.400129   0.002435
    47  O   -0.350419   0.002254
    48  O   -0.390355   0.001889
    49  O   -0.397362   0.002474
    50  W    1.651941   0.003342
    51  W    1.655413   0.003222
    52  W    1.667794   0.004189
    53  W    1.662063   0.003163
    54  O   -0.718283   0.000166
    55  O   -0.702402   0.000038
    56  O   -0.719032   0.000224
    57  O   -0.716060   0.000117
    58  O   -0.699318  -0.000039
    59  O   -0.720332   0.000193
    60  O   -0.718549   0.000278
    61  O   -0.716615   0.000268
    62  O   -0.719614  -0.000191
    63  O   -0.703733   0.000017
    64  O   -0.719649  -0.000209
    65  O   -0.722453  -0.000216
    66  O   -0.879512   0.006078
    67  O   -0.879511   0.008321
    68  O   -0.877567   0.008158
    69  O   -0.886984   0.007321
    70  K    0.844386   0.000256
    71  K    0.844033   0.000290
    72  K    0.838909   0.000313
    73  V    1.216137   0.927140
 Sum of Mulliken charges =  -1.00000  -0.00000

 Dipole moment (field-independent basis, Debye):
    X=             29.3705    Y=            -12.9457    Z=            -31.2467  Tot=             44.7948
 Quadrupole moment (field-independent basis, Debye-Ang):
   XX=           -785.2557   YY=           -698.1357   ZZ=           -793.4326
   XY=            127.1726   XZ=            191.6474   YZ=            -88.0746

 Normal termination of Gaussian 16 at Sat Jun  1 13:59:40 2024.
