 Gaussian 16, Revision C.01,
 Gaussian 16:  ES64L-G16RevC.01  3-Jul-2019

 ----------------------------------------------------------------------
 # def2svp wb97xd scrf=(smd,solvent=acetonitrile) g09default scf=(xqc,m
 axcycle=64) force guess=read nosymm
 ----------------------------------------------------------------------

 ----------
 Title Card
 ----------
 Symbolic Z-matrix:
 Charge = -1 Multiplicity = 1

                          Input orientation:
 ---------------------------------------------------------------------
 Center     Atomic      Atomic             Coordinates (Angstroms)
 Number     Number       Type             X           Y           Z
 ---------------------------------------------------------------------
      1         17           0       -9.687916    8.277000   10.537379
      2          6           0       -8.389009    4.290813   12.198851
      3          6           0       -9.195606    3.965693   11.091749
      4          6           0      -10.101893    2.897129   11.224317
      5          6           0      -10.209529    2.191495   12.419075
      6          6           0       -9.401151    2.526629   13.506408
      7          6           0       -8.490343    3.578994   13.389295
      8          1           0       -7.675813    5.115119   12.133106
      9          1           0      -10.739671    2.631421   10.376337
     10          1           0      -10.932549    1.376731   12.505546
     11          1           0       -9.471320    1.963757   14.439542
     12          1           0       -7.859766    3.855673   14.237882
     13          6           0       -9.152114    4.720404    9.837746
     14          6           0       -8.441555    5.847642    9.624298
     15          1           0       -9.783259    4.331128    9.030585
     16          1           0       -8.470371    6.357602    8.661224
     17          1           0       -7.755168    6.253778   10.367718
     18          8           0       -0.974554   -1.824292    7.453266
     19          8           0       -8.373364   -1.321359    7.460404
     20          8           0       -7.006498    1.331284   10.489805
     21          8           0       -2.327010   -4.398157   10.555364
     22         74           0       -3.374676    0.714543    6.507855
     23         74           0       -5.996000   -3.846611    6.574775
     24         74           0       -3.580446    0.880828   11.394468
     25         74           0       -5.770374   -3.894299   11.467175
     26         74           0       -2.447794   -2.586835    6.374009
     27         74           0       -6.901314   -0.546554    6.347018
     28         74           0       -6.780340   -0.268261   11.592076
     29         74           0       -2.556764   -2.744273   11.624127
     30          8           0       -3.130496    1.911770    5.343518
     31          8           0       -6.139047   -5.096014    5.432688
     32          8           0       -2.654539    1.722593   12.544394
     33          8           0       -6.681293   -4.708771   12.645799
     34          8           0       -2.659735   -0.907980    5.587135
     35          8           0       -6.689202   -2.280966    5.621525
     36          8           0       -5.272209    0.538703   12.361826
     37          8           0       -4.055446   -3.547562   12.408484
     38          8           0        0.345482   -0.076479    9.268094
     39          8           0       -9.696417   -3.006859    9.317206
     40          8           0       -6.375148    3.411551    8.678036
     41          8           0       -2.978860   -6.494685    8.746514
     42          8           0       -1.755927    0.731159    7.484196
     43          8           0       -7.599217   -3.881130    7.550451
     44          8           0       -4.478522    2.193243   10.422815
     45          8           0       -4.864351   -5.242592   10.518132
     46          8           0       -1.621834   -3.520190    5.218085
     47          8           0       -7.775836    0.257652    5.147983
     48          8           0       -7.993344   -0.165015   12.775683
     49          8           0       -1.327903   -2.871376   12.790667
     50         74           0       -1.219657   -0.581658    8.838482
     51         74           0       -8.131848   -2.512394    8.874473
     52         74           0       -5.888763    1.841367    9.050319
     53         74           0       -3.467633   -4.920252    9.158867
     54          8           0       -4.219444   -3.124356    6.065190
     55          8           0       -5.127744   -0.053423    6.017510
     56          8           0       -6.163634   -2.021559   11.924830
     57          8           0       -3.154839   -0.993641   11.918048
     58          8           0       -4.340318    1.581568    7.849229
     59          8           0       -5.003026   -4.704061    7.920398
     60          8           0       -2.289104    0.553633   10.073906
     61          8           0       -7.052745   -3.622437   10.133009
     62          8           0       -2.570318   -3.915941    7.853678
     63          8           0       -6.796286    0.785319    7.800274
     64          8           0       -7.809500   -1.179681   10.157688
     65          8           0       -1.537720   -1.890828   10.149091
     66          8           0       -3.344398   -1.166954    8.014145
     67          8           0       -6.003896   -1.968632    8.035308
     68          8           0       -5.097307   -0.218453    9.945141
     69          8           0       -4.233485   -2.855805    9.975402
     70         19           0       -3.223735   -6.147711    5.648557
     71         19           0       -0.127346   -0.018339   12.317415
     72         19           0       -9.294186   -2.819879   12.400334
     73         23           0       -4.671832   -1.548368    8.989956
 ---------------------------------------------------------------------

 SCF Done:  E(RwB97XD) =  -7327.70223707     A.U. after   12 cycles

 Alpha  occ. eigenvalues -- -197.29324-130.00121-130.00035-130.00007-101.48340
 Alpha  occ. eigenvalues --  -22.62462 -19.33613 -19.33609 -19.33603 -19.33581
 Alpha  occ. eigenvalues --  -19.30734 -19.30696 -19.30691 -19.30688 -19.30667
 Alpha  occ. eigenvalues --  -19.30664 -19.30662 -19.30641 -19.30588 -19.30369
 Alpha  occ. eigenvalues --  -19.30348 -19.30171 -19.29368 -19.29356 -19.29348
 Alpha  occ. eigenvalues --  -19.29333 -19.29329 -19.29310 -19.29302 -19.29279
 Alpha  occ. eigenvalues --  -19.29239 -19.29217 -19.29209 -19.29199 -19.29184
 Alpha  occ. eigenvalues --  -19.29157 -19.29125 -19.29123 -19.29115 -19.29113
 Alpha  occ. eigenvalues --  -19.29106 -19.29090 -19.29041 -19.29000 -19.28982
 Alpha  occ. eigenvalues --  -19.28898 -19.11417 -19.11409 -19.11400 -13.37523
 Alpha  occ. eigenvalues --  -13.37428 -13.37404 -10.70453 -10.70446 -10.70445
 Alpha  occ. eigenvalues --  -10.70359 -10.70352 -10.70347 -10.70334 -10.70327
 Alpha  occ. eigenvalues --  -10.70326 -10.29862 -10.29315 -10.29297 -10.29038
 Alpha  occ. eigenvalues --  -10.28974 -10.28911 -10.28180 -10.27450  -9.38812
 Alpha  occ. eigenvalues --   -7.13642  -7.13586  -7.13582  -3.23305  -3.23299
 Alpha  occ. eigenvalues --   -3.23289  -3.23285  -3.23275  -3.23240  -3.23238
 Alpha  occ. eigenvalues --   -3.23237  -3.23221  -3.22956  -3.22941  -3.22763
 Alpha  occ. eigenvalues --   -2.91743  -1.94133  -1.94103  -1.94093  -1.87712
 Alpha  occ. eigenvalues --   -1.87661  -1.87651  -1.87614  -1.87487  -1.87465
 Alpha  occ. eigenvalues --   -1.87462  -1.87447  -1.87422  -1.87268  -1.87239
 Alpha  occ. eigenvalues --   -1.87087  -1.86627  -1.86507  -1.86498  -1.86482
 Alpha  occ. eigenvalues --   -1.86451  -1.86429  -1.86344  -1.86317  -1.86305
 Alpha  occ. eigenvalues --   -1.86294  -1.86274  -1.86261  -1.86142  -1.86130
 Alpha  occ. eigenvalues --   -1.86117  -1.86104  -1.86035  -1.86018  -1.85988
 Alpha  occ. eigenvalues --   -1.85915  -1.85893  -1.85796  -1.85715  -1.85659
 Alpha  occ. eigenvalues --   -1.51212  -1.51121  -1.51102  -1.13021  -1.11246
 Alpha  occ. eigenvalues --   -1.11164  -1.11160  -1.08969  -1.08534  -1.08501
 Alpha  occ. eigenvalues --   -1.08316  -1.07558  -1.07490  -1.07484  -1.06902
 Alpha  occ. eigenvalues --   -1.06890  -1.06872  -1.06302  -1.06277  -1.05356
 Alpha  occ. eigenvalues --   -1.05349  -1.04981  -1.04975  -1.04957  -1.04231
 Alpha  occ. eigenvalues --   -1.04226  -1.04191  -1.04048  -1.04016  -1.04000
 Alpha  occ. eigenvalues --   -1.03943  -1.03925  -1.03897  -1.03767  -1.03754
 Alpha  occ. eigenvalues --   -1.03621  -1.03573  -1.03307  -1.03276  -1.03156
 Alpha  occ. eigenvalues --   -1.03138  -1.03075  -1.02989  -0.94361  -0.86678
 Alpha  occ. eigenvalues --   -0.86596  -0.86581  -0.86508  -0.86488  -0.86486
 Alpha  occ. eigenvalues --   -0.86412  -0.86386  -0.86377  -0.86376  -0.82805
 Alpha  occ. eigenvalues --   -0.79720  -0.71577  -0.69653  -0.67991  -0.64592
 Alpha  occ. eigenvalues --   -0.63962  -0.63897  -0.63876  -0.63278  -0.63259
 Alpha  occ. eigenvalues --   -0.63150  -0.62944  -0.62660  -0.62599  -0.61945
 Alpha  occ. eigenvalues --   -0.61601  -0.61580  -0.61486  -0.61237  -0.61217
 Alpha  occ. eigenvalues --   -0.61175  -0.60419  -0.59468  -0.59443  -0.59429
 Alpha  occ. eigenvalues --   -0.59385  -0.59353  -0.58653  -0.58008  -0.57973
 Alpha  occ. eigenvalues --   -0.57893  -0.57052  -0.57030  -0.56998  -0.56274
 Alpha  occ. eigenvalues --   -0.56252  -0.56102  -0.55710  -0.54873  -0.54811
 Alpha  occ. eigenvalues --   -0.54768  -0.54519  -0.54238  -0.54116  -0.54102
 Alpha  occ. eigenvalues --   -0.54034  -0.53963  -0.53268  -0.53232  -0.53095
 Alpha  occ. eigenvalues --   -0.53053  -0.52913  -0.52741  -0.52711  -0.52657
 Alpha  occ. eigenvalues --   -0.52626  -0.52515  -0.52461  -0.52400  -0.51625
 Alpha  occ. eigenvalues --   -0.51608  -0.51378  -0.51341  -0.51314  -0.51260
 Alpha  occ. eigenvalues --   -0.51194  -0.51170  -0.50969  -0.50801  -0.50625
 Alpha  occ. eigenvalues --   -0.50599  -0.50597  -0.49950  -0.49930  -0.49300
 Alpha  occ. eigenvalues --   -0.49267  -0.49233  -0.49218  -0.49166  -0.49091
 Alpha  occ. eigenvalues --   -0.48905  -0.48084  -0.48037  -0.47923  -0.47631
 Alpha  occ. eigenvalues --   -0.47399  -0.47296  -0.47252  -0.47034  -0.46976
 Alpha  occ. eigenvalues --   -0.46908  -0.46618  -0.46615  -0.46478  -0.46215
 Alpha  occ. eigenvalues --   -0.46162  -0.46121  -0.45651  -0.45111  -0.44936
 Alpha  occ. eigenvalues --   -0.44900  -0.44204  -0.44159  -0.44042  -0.43525
 Alpha  occ. eigenvalues --   -0.43322  -0.43279  -0.43144  -0.43137  -0.43099
 Alpha  occ. eigenvalues --   -0.42768  -0.42744  -0.42707  -0.42623  -0.42608
 Alpha  occ. eigenvalues --   -0.42537  -0.42499  -0.42487  -0.42315  -0.42306
 Alpha  occ. eigenvalues --   -0.42280  -0.42056  -0.41923  -0.41881  -0.41868
 Alpha  occ. eigenvalues --   -0.41256  -0.41234  -0.41174  -0.41099  -0.40593
 Alpha  occ. eigenvalues --   -0.40580  -0.40571  -0.40350  -0.39459  -0.39446
 Alpha  occ. eigenvalues --   -0.37050  -0.32563  -0.29220  -0.25115  -0.25086
 Alpha  occ. eigenvalues --   -0.23459
 Alpha virt. eigenvalues --   -0.09369  -0.09166  -0.08343  -0.08297  -0.06899
 Alpha virt. eigenvalues --   -0.06875  -0.06790  -0.04381  -0.04102  -0.04049
 Alpha virt. eigenvalues --   -0.03730  -0.03502  -0.03443  -0.03226  -0.03079

 Mulliken charges:
               1
     1  Cl  -0.895501
     2  C   -0.082442
     3  C    0.048359
     4  C   -0.081562
     5  C   -0.034496
     6  C   -0.033040
     7  C   -0.048779
     8  H    0.028877
     9  H    0.029259
    10  H    0.041112
    11  H    0.037140
    12  H    0.039378
    13  C   -0.127951
    14  C    0.034751
    15  H    0.019468
    16  H    0.035291
    17  H    0.027863
    18  O   -0.661703
    19  O   -0.659997
    20  O   -0.654763
    21  O   -0.662343
    22  W    1.729678
    23  W    1.670506
    24  W    1.681543
    25  W    1.692515
    26  W    1.673164
    27  W    1.724955
    28  W    1.614376
    29  W    1.682313
    30  O   -0.320321
    31  O   -0.365566
    32  O   -0.366529
    33  O   -0.357885
    34  O   -0.661688
    35  O   -0.669630
    36  O   -0.659586
    37  O   -0.661873
    38  O   -0.366905
    39  O   -0.365871
    40  O   -0.298682
    41  O   -0.364671
    42  O   -0.668926
    43  O   -0.662340
    44  O   -0.657750
    45  O   -0.665165
    46  O   -0.366953
    47  O   -0.320301
    48  O   -0.359936
    49  O   -0.363653
    50  W    1.669228
    51  W    1.674955
    52  W    1.682347
    53  W    1.681617
    54  O   -0.723456
    55  O   -0.705516
    56  O   -0.724081
    57  O   -0.721828
    58  O   -0.703337
    59  O   -0.724547
    60  O   -0.723586
    61  O   -0.718514
    62  O   -0.723269
    63  O   -0.705156
    64  O   -0.724535
    65  O   -0.724870
    66  O   -0.800818
    67  O   -0.799998
    68  O   -0.797532
    69  O   -0.807793
    70  K    0.865171
    71  K    0.862152
    72  K    0.862032
    73  V    1.187597
 Sum of Mulliken charges =  -1.00000

 Dipole moment (field-independent basis, Debye):
    X=             50.1614    Y=            -51.3746    Z=            -38.9976  Tot=             81.7087
 Quadrupole moment (field-independent basis, Debye-Ang):
   XX=          -1042.5912   YY=           -888.1747   ZZ=           -921.0378
   XY=            448.3992   XZ=            450.0019   YZ=           -479.1769

 Normal termination of Gaussian 16 at Mon Jun  3 05:52:40 2024.
