 Gaussian 16, Revision C.01,
 Gaussian 16:  ES64L-G16RevC.01  3-Jul-2019

 ----------------------------------------------------------------------
 # def2svp wb97xd scrf=(smd,solvent=acetonitrile) g09default scf=(xqc,m
 axcycle=64) force guess=read nosymm
 ----------------------------------------------------------------------

 ----------
 Title Card
 ----------
 Symbolic Z-matrix:
 Charge = -1 Multiplicity = 1

                          Input orientation:
 ---------------------------------------------------------------------
 Center     Atomic      Atomic             Coordinates (Angstroms)
 Number     Number       Type             X           Y           Z
 ---------------------------------------------------------------------
      1         17           0       -9.687916    8.277000   10.537379
      2          6           0       -8.389009    4.290813   12.198851
      3          6           0       -9.195606    3.965693   11.091749
      4          6           0      -10.101893    2.897129   11.224317
      5          6           0      -10.209529    2.191495   12.419075
      6          6           0       -9.401151    2.526629   13.506408
      7          6           0       -8.490343    3.578994   13.389295
      8          1           0       -7.675813    5.115119   12.133106
      9          1           0      -10.739671    2.631421   10.376337
     10          1           0      -10.932549    1.376731   12.505546
     11          1           0       -9.471320    1.963757   14.439542
     12          1           0       -7.859766    3.855673   14.237882
     13          6           0       -9.152114    4.720404    9.837746
     14          6           0       -8.441555    5.847642    9.624298
     15          1           0       -9.783259    4.331128    9.030585
     16          1           0       -8.470371    6.357602    8.661224
     17          1           0       -7.755168    6.253778   10.367718
     18          8           0       -0.974554   -1.824292    7.453266
     19          8           0       -8.373364   -1.321359    7.460404
     20          8           0       -7.006498    1.331284   10.489805
     21          8           0       -2.327010   -4.398157   10.555364
     22         74           0       -3.374676    0.714543    6.507855
     23         74           0       -5.996000   -3.846611    6.574775
     24         74           0       -3.580446    0.880828   11.394468
     25         74           0       -5.770374   -3.894299   11.467175
     26         74           0       -2.447794   -2.586835    6.374009
     27         74           0       -6.901314   -0.546554    6.347018
     28         74           0       -6.780340   -0.268261   11.592076
     29         74           0       -2.556764   -2.744273   11.624127
     30          8           0       -3.130496    1.911770    5.343518
     31          8           0       -6.139047   -5.096014    5.432688
     32          8           0       -2.654539    1.722593   12.544394
     33          8           0       -6.681293   -4.708771   12.645799
     34          8           0       -2.659735   -0.907980    5.587135
     35          8           0       -6.689202   -2.280966    5.621525
     36          8           0       -5.272209    0.538703   12.361826
     37          8           0       -4.055446   -3.547562   12.408484
     38          8           0        0.345482   -0.076479    9.268094
     39          8           0       -9.696417   -3.006859    9.317206
     40          8           0       -6.375148    3.411551    8.678036
     41          8           0       -2.978860   -6.494685    8.746514
     42          8           0       -1.755927    0.731159    7.484196
     43          8           0       -7.599217   -3.881130    7.550451
     44          8           0       -4.478522    2.193243   10.422815
     45          8           0       -4.864351   -5.242592   10.518132
     46          8           0       -1.621834   -3.520190    5.218085
     47          8           0       -7.775836    0.257652    5.147983
     48          8           0       -7.993344   -0.165015   12.775683
     49          8           0       -1.327903   -2.871376   12.790667
     50         74           0       -1.219657   -0.581658    8.838482
     51         74           0       -8.131848   -2.512394    8.874473
     52         74           0       -5.888763    1.841367    9.050319
     53         74           0       -3.467633   -4.920252    9.158867
     54          8           0       -4.219444   -3.124356    6.065190
     55          8           0       -5.127744   -0.053423    6.017510
     56          8           0       -6.163634   -2.021559   11.924830
     57          8           0       -3.154839   -0.993641   11.918048
     58          8           0       -4.340318    1.581568    7.849229
     59          8           0       -5.003026   -4.704061    7.920398
     60          8           0       -2.289104    0.553633   10.073906
     61          8           0       -7.052745   -3.622437   10.133009
     62          8           0       -2.570318   -3.915941    7.853678
     63          8           0       -6.796286    0.785319    7.800274
     64          8           0       -7.809500   -1.179681   10.157688
     65          8           0       -1.537720   -1.890828   10.149091
     66          8           0       -3.344398   -1.166954    8.014145
     67          8           0       -6.003896   -1.968632    8.035308
     68          8           0       -5.097307   -0.218453    9.945141
     69          8           0       -4.233485   -2.855805    9.975402
     70         19           0       -3.223735   -6.147711    5.648557
     71         19           0       -0.127346   -0.018339   12.317415
     72         19           0       -9.294186   -2.819879   12.400334
     73         23           0       -4.671832   -1.548368    8.989956
 ---------------------------------------------------------------------

 SCF Done:  E(UwB97XD) =  -7327.70219822     A.U. after   52 cycles

 Alpha  occ. eigenvalues --  -19.24657 -18.94010 -18.92935 -18.92873 -13.36505
 Alpha  occ. eigenvalues --  -13.36497 -13.36407 -10.69432 -10.69428 -10.69427
 Alpha  occ. eigenvalues --  -10.69426 -10.69422 -10.69416 -10.69334 -10.69330
 Alpha  occ. eigenvalues --  -10.69329 -10.33089 -10.32317 -10.32033 -10.31040
 Alpha  occ. eigenvalues --  -10.31031 -10.31026 -10.30586 -10.30553  -9.52442
 Alpha  occ. eigenvalues --   -7.27326  -7.26985  -7.26982  -3.21093  -3.21080
 Alpha  occ. eigenvalues --   -3.21059  -3.21027  -3.21016  -3.21006  -3.20995
 Alpha  occ. eigenvalues --   -3.20988  -3.20983  -3.20848  -3.20838  -3.20815
 Alpha  occ. eigenvalues --   -2.78753  -1.85336  -1.85284  -1.85275  -1.85239
 Alpha  occ. eigenvalues --   -1.85137  -1.85074  -1.85058  -1.85032  -1.85019
 Alpha  occ. eigenvalues --   -1.85011  -1.84990  -1.84942  -1.84389  -1.84275
 Alpha  occ. eigenvalues --   -1.84268  -1.84247  -1.84212  -1.84201  -1.84146
 Alpha  occ. eigenvalues --   -1.84123  -1.84099  -1.84089  -1.84059  -1.84051
 Alpha  occ. eigenvalues --   -1.83947  -1.83910  -1.83881  -1.83876  -1.83856
 Alpha  occ. eigenvalues --   -1.83821  -1.83793  -1.83784  -1.83776  -1.83684
 Alpha  occ. eigenvalues --   -1.83675  -1.83660  -1.81921  -1.81589  -1.81557
 Alpha  occ. eigenvalues --   -1.50208  -1.50204  -1.50119  -1.08615  -1.06994
 Alpha  occ. eigenvalues --   -1.06952  -1.06914  -1.06005  -1.06000  -1.05976
 Alpha  occ. eigenvalues --   -1.04580  -1.04571  -1.04563  -1.03960  -1.03953
 Alpha  occ. eigenvalues --   -1.03696  -1.03355  -1.03326  -1.03305  -1.03055
 Alpha  occ. eigenvalues --   -1.03042  -1.02258  -1.02228  -1.02224  -1.02105
 Alpha  occ. eigenvalues --   -1.02032  -1.02007  -1.01917  -1.01908  -1.01802
 Alpha  occ. eigenvalues --   -1.01772  -1.01752  -1.01616  -1.01584  -1.01576
 Alpha  occ. eigenvalues --   -1.01314  -1.00823  -1.00794  -1.00741  -1.00737
 Alpha  occ. eigenvalues --   -0.99991  -0.99935  -0.99875  -0.96235  -0.89359
 Alpha  occ. eigenvalues --   -0.85654  -0.85649  -0.85575  -0.85511  -0.85496
 Alpha  occ. eigenvalues --   -0.85495  -0.85468  -0.85416  -0.85406  -0.84313
 Alpha  occ. eigenvalues --   -0.82498  -0.80958  -0.71960  -0.69657  -0.65127
 Alpha  occ. eigenvalues --   -0.62306  -0.61696  -0.61639  -0.61612  -0.60689
 Alpha  occ. eigenvalues --   -0.58978  -0.58953  -0.58944  -0.58896  -0.58822
 Alpha  occ. eigenvalues --   -0.58753  -0.58726  -0.58689  -0.58546  -0.57359
 Alpha  occ. eigenvalues --   -0.57322  -0.57287  -0.57003  -0.56812  -0.56493
 Alpha  occ. eigenvalues --   -0.56447  -0.56407  -0.56009  -0.55857  -0.55366
 Alpha  occ. eigenvalues --   -0.55357  -0.55318  -0.54428  -0.54194  -0.54167
 Alpha  occ. eigenvalues --   -0.54013  -0.53666  -0.53610  -0.53599  -0.52795
 Alpha  occ. eigenvalues --   -0.52661  -0.52609  -0.52494  -0.52459  -0.51496
 Alpha  occ. eigenvalues --   -0.51482  -0.51470  -0.51389  -0.51328  -0.50826
 Alpha  occ. eigenvalues --   -0.50570  -0.50540  -0.50487  -0.50403  -0.50343
 Alpha  occ. eigenvalues --   -0.50286  -0.50096  -0.50053  -0.50033  -0.49781
 Alpha  occ. eigenvalues --   -0.49684  -0.49655  -0.49515  -0.49495  -0.49304
 Alpha  occ. eigenvalues --   -0.49261  -0.49202  -0.49104  -0.49047  -0.48974
 Alpha  occ. eigenvalues --   -0.48732  -0.48563  -0.48542  -0.48485  -0.47728
 Alpha  occ. eigenvalues --   -0.47705  -0.47240  -0.46488  -0.46052  -0.46034
 Alpha  occ. eigenvalues --   -0.45886  -0.45875  -0.45763  -0.45638  -0.45226
 Alpha  occ. eigenvalues --   -0.45147  -0.45140  -0.44863  -0.44677  -0.44517
 Alpha  occ. eigenvalues --   -0.44486  -0.44470  -0.44289  -0.44273  -0.44257
 Alpha  occ. eigenvalues --   -0.43421  -0.43185  -0.42569  -0.42541  -0.42474
 Alpha  occ. eigenvalues --   -0.42320  -0.42194  -0.42172  -0.42164  -0.41640
 Alpha  occ. eigenvalues --   -0.41624  -0.41581  -0.41047  -0.41002  -0.40802
 Alpha  occ. eigenvalues --   -0.40785  -0.40776  -0.40438  -0.40426  -0.40388
 Alpha  occ. eigenvalues --   -0.40235  -0.40208  -0.40190  -0.40148  -0.39888
 Alpha  occ. eigenvalues --   -0.39361  -0.39284  -0.39260  -0.39171  -0.39056
 Alpha  occ. eigenvalues --   -0.38972  -0.38938  -0.38849  -0.38762  -0.38721
 Alpha  occ. eigenvalues --   -0.38342  -0.38320  -0.38286  -0.38146  -0.37218
 Alpha  occ. eigenvalues --   -0.37199  -0.34667  -0.34633  -0.33702  -0.30497
 Alpha  occ. eigenvalues --   -0.25712
 Alpha virt. eigenvalues --   -0.11953  -0.06214  -0.06166  -0.04745  -0.04703
 Alpha virt. eigenvalues --   -0.04608  -0.01529  -0.01403  -0.01348  -0.01094
 Alpha virt. eigenvalues --   -0.00922  -0.00886  -0.00850  -0.00162  -0.00089

  Beta  occ. eigenvalues -- -197.10743-129.99098-129.99097-129.99004-101.62434
  Beta  occ. eigenvalues --  -22.43173 -19.28519 -19.28516 -19.28455 -19.28444
  Beta  occ. eigenvalues --  -19.28392 -19.28379 -19.28368 -19.28357 -19.28336
  Beta  occ. eigenvalues --  -19.28273 -19.28233 -19.28164 -19.26979 -19.26960
  Beta  occ. eigenvalues --  -19.26947 -19.26913 -19.26910 -19.26903 -19.26872
  Beta  occ. eigenvalues --  -19.26868 -19.26860 -19.26859 -19.26848 -19.26845
  Beta  occ. eigenvalues --  -19.26843 -19.26838 -19.26826 -19.26811 -19.26808
  Beta  occ. eigenvalues --  -19.26803 -19.26790 -19.26783 -19.26783 -19.26729
  Beta  occ. eigenvalues --  -19.26685 -19.26657 -19.24716 -19.24683 -19.24653
  Beta  occ. eigenvalues --  -19.24631 -18.93664 -18.91502 -18.91382 -13.36505
  Beta  occ. eigenvalues --  -13.36497 -13.36407 -10.69432 -10.69428 -10.69427
  Beta  occ. eigenvalues --  -10.69426 -10.69422 -10.69416 -10.69334 -10.69330
  Beta  occ. eigenvalues --  -10.69329 -10.33376 -10.32432 -10.31980 -10.31155
  Beta  occ. eigenvalues --  -10.31142 -10.31135 -10.30526 -10.30493  -9.52889
  Beta  occ. eigenvalues --   -7.28728  -7.27290  -7.27287  -3.21088  -3.21079
  Beta  occ. eigenvalues --   -3.21059  -3.21021  -3.21016  -3.21000  -3.20989
  Beta  occ. eigenvalues --   -3.20982  -3.20977  -3.20848  -3.20833  -3.20809
  Beta  occ. eigenvalues --   -2.74692  -1.85330  -1.85279  -1.85269  -1.85230
  Beta  occ. eigenvalues --   -1.85132  -1.85068  -1.85053  -1.85026  -1.85011
  Beta  occ. eigenvalues --   -1.85001  -1.84985  -1.84933  -1.84386  -1.84273
  Beta  occ. eigenvalues --   -1.84264  -1.84245  -1.84209  -1.84197  -1.84143
  Beta  occ. eigenvalues --   -1.84121  -1.84095  -1.84086  -1.84056  -1.84048
  Beta  occ. eigenvalues --   -1.83945  -1.83906  -1.83878  -1.83873  -1.83853
  Beta  occ. eigenvalues --   -1.83818  -1.83790  -1.83781  -1.83773  -1.83681
  Beta  occ. eigenvalues --   -1.83673  -1.83658  -1.80582  -1.75958  -1.75697
  Beta  occ. eigenvalues --   -1.50208  -1.50204  -1.50119  -1.08598  -1.06973
  Beta  occ. eigenvalues --   -1.06933  -1.06888  -1.06003  -1.05998  -1.05974
  Beta  occ. eigenvalues --   -1.04581  -1.04571  -1.04562  -1.03959  -1.03955
  Beta  occ. eigenvalues --   -1.03629  -1.03322  -1.03288  -1.03275  -1.03053
  Beta  occ. eigenvalues --   -1.03033  -1.02240  -1.02209  -1.02201  -1.02097
  Beta  occ. eigenvalues --   -1.02028  -1.01994  -1.01912  -1.01894  -1.01797
  Beta  occ. eigenvalues --   -1.01770  -1.01748  -1.01610  -1.01581  -1.01561
  Beta  occ. eigenvalues --   -1.01314  -1.00807  -1.00771  -1.00740  -1.00734
  Beta  occ. eigenvalues --   -0.99853  -0.99795  -0.99753  -0.96468  -0.90041
  Beta  occ. eigenvalues --   -0.85654  -0.85649  -0.85575  -0.85511  -0.85496
  Beta  occ. eigenvalues --   -0.85495  -0.85468  -0.85416  -0.85406  -0.84574
  Beta  occ. eigenvalues --   -0.84372  -0.82716  -0.72220  -0.69780  -0.65378
  Beta  occ. eigenvalues --   -0.62306  -0.61695  -0.61639  -0.61611  -0.60900
  Beta  occ. eigenvalues --   -0.58974  -0.58950  -0.58943  -0.58806  -0.58760
  Beta  occ. eigenvalues --   -0.58732  -0.58712  -0.58668  -0.58547  -0.57333
  Beta  occ. eigenvalues --   -0.57171  -0.57119  -0.57033  -0.56918  -0.56495
  Beta  occ. eigenvalues --   -0.56416  -0.56371  -0.55812  -0.55601  -0.55345
  Beta  occ. eigenvalues --   -0.55336  -0.55321  -0.54625  -0.54184  -0.54158
  Beta  occ. eigenvalues --   -0.54000  -0.53635  -0.53592  -0.53552  -0.52864
  Beta  occ. eigenvalues --   -0.52662  -0.52595  -0.52474  -0.52454  -0.51484
  Beta  occ. eigenvalues --   -0.51456  -0.51450  -0.51327  -0.51269  -0.51027
  Beta  occ. eigenvalues --   -0.50559  -0.50473  -0.50466  -0.50341  -0.50246
  Beta  occ. eigenvalues --   -0.50182  -0.50063  -0.50052  -0.50001  -0.49729
  Beta  occ. eigenvalues --   -0.49663  -0.49624  -0.49505  -0.49486  -0.49302
  Beta  occ. eigenvalues --   -0.49238  -0.49201  -0.49069  -0.49028  -0.48949
  Beta  occ. eigenvalues --   -0.48724  -0.48561  -0.48539  -0.48478  -0.47925
  Beta  occ. eigenvalues --   -0.47688  -0.47644  -0.46062  -0.45908  -0.45879
  Beta  occ. eigenvalues --   -0.45812  -0.45680  -0.45578  -0.45226  -0.45167
  Beta  occ. eigenvalues --   -0.45148  -0.45058  -0.44863  -0.44676  -0.44488
  Beta  occ. eigenvalues --   -0.44474  -0.44434  -0.44282  -0.44238  -0.44216
  Beta  occ. eigenvalues --   -0.43414  -0.43292  -0.42522  -0.42483  -0.42439
  Beta  occ. eigenvalues --   -0.42284  -0.42248  -0.42137  -0.42124  -0.41647
  Beta  occ. eigenvalues --   -0.41614  -0.41561  -0.41451  -0.41050  -0.40967
  Beta  occ. eigenvalues --   -0.40774  -0.40740  -0.40713  -0.40424  -0.40414
  Beta  occ. eigenvalues --   -0.40373  -0.40189  -0.40177  -0.40161  -0.39831
  Beta  occ. eigenvalues --   -0.39665  -0.39359  -0.39188  -0.39129  -0.39126
  Beta  occ. eigenvalues --   -0.38940  -0.38909  -0.38852  -0.38743  -0.38712
  Beta  occ. eigenvalues --   -0.38674  -0.38335  -0.38312  -0.38280  -0.37653
  Beta  occ. eigenvalues --   -0.37219  -0.37194  -0.35597  -0.35559  -0.33992
  Beta  occ. eigenvalues --   -0.30879
  Beta virt. eigenvalues --   -0.06212  -0.06167  -0.04744  -0.04702  -0.04607
  Beta virt. eigenvalues --   -0.01525  -0.01398  -0.01342  -0.01087  -0.00917
  Beta virt. eigenvalues --   -0.00882  -0.00845  -0.00153  -0.00078  -0.00045

 Mulliken charges and spin densities:
               1          2
     1  Cl  -0.354539  -0.602056
     2  C   -0.036229  -0.098585
     3  C    0.011079   0.060394
     4  C   -0.035270  -0.094277
     5  C   -0.032275   0.059819
     6  C    0.009170  -0.117973
     7  C   -0.046988   0.060245
     8  H    0.049710   0.004242
     9  H    0.051217   0.004033
    10  H    0.056418  -0.002127
    11  H    0.057725   0.005172
    12  H    0.054373  -0.002112
    13  C    0.005690  -0.267788
    14  C   -0.037726  -0.018264
    15  H    0.076114   0.010972
    16  H    0.094994   0.000931
    17  H    0.090355  -0.001195
    18  O   -0.670600  -0.000559
    19  O   -0.668853  -0.000514
    20  O   -0.665527  -0.001449
    21  O   -0.671325  -0.000536
    22  W    1.712879   0.000354
    23  W    1.656101   0.000484
    24  W    1.668907   0.000164
    25  W    1.678316   0.000220
    26  W    1.659370   0.002737
    27  W    1.707031   0.002464
    28  W    1.606169   0.003325
    29  W    1.668010   0.002834
    30  O   -0.350250  -0.000525
    31  O   -0.393953  -0.000566
    32  O   -0.395116  -0.000617
    33  O   -0.386729  -0.000564
    34  O   -0.670083  -0.000300
    35  O   -0.676983  -0.000035
    36  O   -0.668521  -0.000144
    37  O   -0.670810  -0.000211
    38  O   -0.396861   0.002102
    39  O   -0.396072   0.002148
    40  O   -0.341224   0.000487
    41  O   -0.394826   0.002133
    42  O   -0.676452   0.000061
    43  O   -0.670928   0.000163
    44  O   -0.666420   0.000280
    45  O   -0.673424   0.000106
    46  O   -0.396939   0.002292
    47  O   -0.352045   0.002159
    48  O   -0.393408   0.001802
    49  O   -0.393847   0.002321
    50  W    1.655292   0.002838
    51  W    1.660572   0.002741
    52  W    1.675529   0.003863
    53  W    1.666891   0.002686
    54  O   -0.721406   0.000092
    55  O   -0.703778   0.000001
    56  O   -0.720994   0.000130
    57  O   -0.719775   0.000063
    58  O   -0.701208   0.000082
    59  O   -0.721932   0.000161
    60  O   -0.721201   0.000213
    61  O   -0.716289   0.000203
    62  O   -0.721652  -0.000178
    63  O   -0.703826  -0.000056
    64  O   -0.723633  -0.000190
    65  O   -0.723081  -0.000199
    66  O   -0.883072   0.005248
    67  O   -0.883071   0.007300
    68  O   -0.880566   0.007282
    69  O   -0.887637   0.006605
    70  K    0.851530   0.000195
    71  K    0.848282   0.000223
    72  K    0.848184   0.000219
    73  V    1.197437   0.936431
 Sum of Mulliken charges =  -1.00000  -0.00000

 Dipole moment (field-independent basis, Debye):
    X=             27.8133    Y=            -13.8514    Z=            -30.8808  Tot=             43.8072
 Quadrupole moment (field-independent basis, Debye-Ang):
   XX=           -757.0873   YY=           -711.1086   ZZ=           -785.7440
   XY=            127.4098   XZ=            172.4981   YZ=            -94.6558

 Normal termination of Gaussian 16 at Mon Jun  3 05:41:49 2024.
