 Gaussian 16, Revision C.01,
 Gaussian 16:  ES64L-G16RevC.01  3-Jul-2019

 ----------------------------------------------------------------------
 # def2svp wb97xd scrf=(smd,solvent=acetonitrile) g09default scf=(xqc,m
 axcycle=64) force guess=read nosymm
 ----------------------------------------------------------------------

 ----------
 Title Card
 ----------
 Symbolic Z-matrix:
 Charge = -1 Multiplicity = 1

                          Input orientation:
 ---------------------------------------------------------------------
 Center     Atomic      Atomic             Coordinates (Angstroms)
 Number     Number       Type             X           Y           Z
 ---------------------------------------------------------------------
      1         17           0       -9.693983    8.278491   10.538148
      2          6           0       -8.392241    4.293641   12.198185
      3          6           0       -9.200552    3.969265   11.092216
      4          6           0      -10.105495    2.899542   11.225149
      5          6           0      -10.209631    2.191919   12.419262
      6          6           0       -9.399406    2.526382   13.505312
      7          6           0       -8.490089    3.579962   13.387868
      8          1           0       -7.680270    5.118924   12.131997
      9          1           0      -10.744692    2.633726   10.378336
     10          1           0      -10.931178    1.375884   12.506030
     11          1           0       -9.466774    1.961932   14.437758
     12          1           0       -7.857713    3.855972   14.235264
     13          6           0       -9.158030    4.725236    9.838781
     14          6           0       -8.442214    5.848811    9.623537
     15          1           0       -9.793591    4.339980    9.033188
     16          1           0       -8.469720    6.358268    8.660138
     17          1           0       -7.751673    6.251451   10.365118
     18          8           0       -0.974263   -1.825637    7.452434
     19          8           0       -8.372767   -1.320615    7.459990
     20          8           0       -7.005954    1.330192   10.490979
     21          8           0       -2.326091   -4.398484   10.555507
     22         74           0       -3.373149    0.715592    6.509479
     23         74           0       -5.996731   -3.847752    6.576374
     24         74           0       -3.578684    0.881297   11.393400
     25         74           0       -5.770608   -3.896066   11.465614
     26         74           0       -2.448976   -2.586802    6.372284
     27         74           0       -6.899322   -0.547103    6.346024
     28         74           0       -6.778191   -0.269349   11.593976
     29         74           0       -2.557424   -2.744478   11.625293
     30          8           0       -3.128117    1.913321    5.346204
     31          8           0       -6.140640   -5.097460    5.434439
     32          8           0       -2.652778    1.723629   12.542762
     33          8           0       -6.681142   -4.711548   12.643822
     34          8           0       -2.659135   -0.907349    5.587123
     35          8           0       -6.688451   -2.281528    5.621723
     36          8           0       -5.270395    0.538149   12.362384
     37          8           0       -4.055625   -3.548677   12.408309
     38          8           0        0.347178   -0.080576    9.267407
     39          8           0       -9.697169   -3.003677    9.317293
     40          8           0       -6.377221    3.410256    8.679452
     41          8           0       -2.975986   -6.494588    8.746489
     42          8           0       -1.754652    0.730509    7.485340
     43          8           0       -7.599682   -3.880842    7.551217
     44          8           0       -4.478176    2.193066   10.422828
     45          8           0       -4.863527   -5.243290   10.516970
     46          8           0       -1.623564   -3.520098    5.215769
     47          8           0       -7.773477    0.257097    5.146469
     48          8           0       -7.990824   -0.166130   12.777883
     49          8           0       -1.328413   -2.872106   12.791753
     50         74           0       -1.218262   -0.584512    8.838194
     51         74           0       -8.132137   -2.510309    8.874629
     52         74           0       -5.889780    1.840534    9.051023
     53         74           0       -3.465351   -4.920058    9.158665
     54          8           0       -4.219850   -3.124592    6.064837
     55          8           0       -5.126381   -0.053106    6.017546
     56          8           0       -6.162933   -2.022864   11.924968
     57          8           0       -3.153850   -0.993825   11.918835
     58          8           0       -4.339937    1.581573    7.850105
     59          8           0       -5.002224   -4.704587    7.920313
     60          8           0       -2.287912    0.552556   10.073786
     61          8           0       -7.053230   -3.622691   10.132730
     62          8           0       -2.569637   -3.916089    7.852867
     63          8           0       -6.795740    0.784660    7.800364
     64          8           0       -7.808745   -1.179403   10.158378
     65          8           0       -1.537567   -1.892132   10.149312
     66          8           0       -3.343938   -1.167437    8.013950
     67          8           0       -6.003470   -1.968736    8.035583
     68          8           0       -5.096387   -0.218993    9.945646
     69          8           0       -4.232836   -2.856186    9.975333
     70         19           0       -3.224369   -6.148883    5.648510
     71         19           0       -0.126328   -0.022647   12.318400
     72         19           0       -9.295465   -2.820250   12.398617
     73         23           0       -4.671243   -1.548773    8.990010
 ---------------------------------------------------------------------

 SCF Done:  E(RwB97XD) =  -7327.70226073     A.U. after   10 cycles

 Alpha  occ. eigenvalues -- -197.29324-130.00122-130.00038-130.00009-101.48328
 Alpha  occ. eigenvalues --  -22.62462 -19.33617 -19.33609 -19.33607 -19.33580
 Alpha  occ. eigenvalues --  -19.30731 -19.30693 -19.30690 -19.30688 -19.30667
 Alpha  occ. eigenvalues --  -19.30663 -19.30657 -19.30640 -19.30588 -19.30372
 Alpha  occ. eigenvalues --  -19.30344 -19.30175 -19.29373 -19.29357 -19.29352
 Alpha  occ. eigenvalues --  -19.29337 -19.29333 -19.29315 -19.29305 -19.29281
 Alpha  occ. eigenvalues --  -19.29239 -19.29223 -19.29210 -19.29202 -19.29189
 Alpha  occ. eigenvalues --  -19.29160 -19.29126 -19.29124 -19.29117 -19.29116
 Alpha  occ. eigenvalues --  -19.29106 -19.29090 -19.29042 -19.29001 -19.28983
 Alpha  occ. eigenvalues --  -19.28898 -19.11417 -19.11409 -19.11400 -13.37524
 Alpha  occ. eigenvalues --  -13.37431 -13.37406 -10.70454 -10.70447 -10.70446
 Alpha  occ. eigenvalues --  -10.70362 -10.70355 -10.70350 -10.70336 -10.70329
 Alpha  occ. eigenvalues --  -10.70328 -10.29868 -10.29317 -10.29300 -10.29041
 Alpha  occ. eigenvalues --  -10.28982 -10.28912 -10.28194 -10.27459  -9.38800
 Alpha  occ. eigenvalues --   -7.13630  -7.13574  -7.13570  -3.23303  -3.23294
 Alpha  occ. eigenvalues --   -3.23287  -3.23284  -3.23271  -3.23239  -3.23237
 Alpha  occ. eigenvalues --   -3.23233  -3.23218  -3.22953  -3.22938  -3.22761
 Alpha  occ. eigenvalues --   -2.91744  -1.94133  -1.94104  -1.94094  -1.87710
 Alpha  occ. eigenvalues --   -1.87658  -1.87649  -1.87613  -1.87484  -1.87464
 Alpha  occ. eigenvalues --   -1.87459  -1.87445  -1.87421  -1.87267  -1.87237
 Alpha  occ. eigenvalues --   -1.87090  -1.86626  -1.86506  -1.86497  -1.86481
 Alpha  occ. eigenvalues --   -1.86450  -1.86427  -1.86342  -1.86314  -1.86304
 Alpha  occ. eigenvalues --   -1.86293  -1.86272  -1.86259  -1.86142  -1.86128
 Alpha  occ. eigenvalues --   -1.86115  -1.86102  -1.86034  -1.86017  -1.85986
 Alpha  occ. eigenvalues --   -1.85913  -1.85891  -1.85794  -1.85713  -1.85657
 Alpha  occ. eigenvalues --   -1.51213  -1.51124  -1.51104  -1.13021  -1.11246
 Alpha  occ. eigenvalues --   -1.11161  -1.11160  -1.08969  -1.08533  -1.08501
 Alpha  occ. eigenvalues --   -1.08314  -1.07558  -1.07488  -1.07484  -1.06901
 Alpha  occ. eigenvalues --   -1.06889  -1.06870  -1.06298  -1.06274  -1.05358
 Alpha  occ. eigenvalues --   -1.05351  -1.04979  -1.04973  -1.04956  -1.04233
 Alpha  occ. eigenvalues --   -1.04226  -1.04191  -1.04047  -1.04014  -1.03998
 Alpha  occ. eigenvalues --   -1.03941  -1.03924  -1.03895  -1.03765  -1.03754
 Alpha  occ. eigenvalues --   -1.03619  -1.03572  -1.03311  -1.03272  -1.03158
 Alpha  occ. eigenvalues --   -1.03142  -1.03077  -1.02993  -0.94364  -0.86679
 Alpha  occ. eigenvalues --   -0.86598  -0.86583  -0.86512  -0.86489  -0.86487
 Alpha  occ. eigenvalues --   -0.86414  -0.86388  -0.86379  -0.86378  -0.82805
 Alpha  occ. eigenvalues --   -0.79726  -0.71561  -0.69656  -0.67998  -0.64588
 Alpha  occ. eigenvalues --   -0.63959  -0.63894  -0.63873  -0.63277  -0.63259
 Alpha  occ. eigenvalues --   -0.63149  -0.62950  -0.62661  -0.62599  -0.61942
 Alpha  occ. eigenvalues --   -0.61600  -0.61579  -0.61484  -0.61234  -0.61214
 Alpha  occ. eigenvalues --   -0.61172  -0.60419  -0.59467  -0.59442  -0.59427
 Alpha  occ. eigenvalues --   -0.59382  -0.59351  -0.58662  -0.58008  -0.57973
 Alpha  occ. eigenvalues --   -0.57893  -0.57054  -0.57031  -0.56998  -0.56271
 Alpha  occ. eigenvalues --   -0.56248  -0.56100  -0.55710  -0.54872  -0.54809
 Alpha  occ. eigenvalues --   -0.54768  -0.54521  -0.54237  -0.54116  -0.54102
 Alpha  occ. eigenvalues --   -0.54034  -0.53962  -0.53269  -0.53231  -0.53095
 Alpha  occ. eigenvalues --   -0.53053  -0.52913  -0.52742  -0.52710  -0.52656
 Alpha  occ. eigenvalues --   -0.52625  -0.52515  -0.52461  -0.52405  -0.51625
 Alpha  occ. eigenvalues --   -0.51608  -0.51379  -0.51342  -0.51316  -0.51260
 Alpha  occ. eigenvalues --   -0.51191  -0.51170  -0.50975  -0.50802  -0.50625
 Alpha  occ. eigenvalues --   -0.50600  -0.50599  -0.49954  -0.49935  -0.49298
 Alpha  occ. eigenvalues --   -0.49266  -0.49235  -0.49218  -0.49164  -0.49090
 Alpha  occ. eigenvalues --   -0.48906  -0.48084  -0.48037  -0.47923  -0.47633
 Alpha  occ. eigenvalues --   -0.47399  -0.47295  -0.47251  -0.47038  -0.46976
 Alpha  occ. eigenvalues --   -0.46913  -0.46623  -0.46620  -0.46473  -0.46215
 Alpha  occ. eigenvalues --   -0.46163  -0.46122  -0.45658  -0.45111  -0.44935
 Alpha  occ. eigenvalues --   -0.44901  -0.44203  -0.44159  -0.44042  -0.43532
 Alpha  occ. eigenvalues --   -0.43323  -0.43281  -0.43145  -0.43137  -0.43100
 Alpha  occ. eigenvalues --   -0.42771  -0.42747  -0.42710  -0.42624  -0.42608
 Alpha  occ. eigenvalues --   -0.42538  -0.42501  -0.42488  -0.42315  -0.42306
 Alpha  occ. eigenvalues --   -0.42280  -0.42058  -0.41923  -0.41883  -0.41870
 Alpha  occ. eigenvalues --   -0.41261  -0.41239  -0.41180  -0.41104  -0.40596
 Alpha  occ. eigenvalues --   -0.40583  -0.40573  -0.40349  -0.39458  -0.39446
 Alpha  occ. eigenvalues --   -0.37060  -0.32564  -0.29224  -0.25104  -0.25075
 Alpha  occ. eigenvalues --   -0.23454
 Alpha virt. eigenvalues --   -0.09369  -0.09167  -0.08329  -0.08284  -0.06889
 Alpha virt. eigenvalues --   -0.06864  -0.06777  -0.04382  -0.04102  -0.04049
 Alpha virt. eigenvalues --   -0.03729  -0.03503  -0.03443  -0.03225  -0.03075

 Mulliken charges:
               1
     1  Cl  -0.896208
     2  C   -0.082408
     3  C    0.048080
     4  C   -0.081559
     5  C   -0.034549
     6  C   -0.033019
     7  C   -0.048660
     8  H    0.028803
     9  H    0.029306
    10  H    0.041171
    11  H    0.037228
    12  H    0.039391
    13  C   -0.128060
    14  C    0.035243
    15  H    0.019401
    16  H    0.035395
    17  H    0.028181
    18  O   -0.661487
    19  O   -0.659762
    20  O   -0.654740
    21  O   -0.662100
    22  W    1.729369
    23  W    1.670063
    24  W    1.681177
    25  W    1.692221
    26  W    1.672724
    27  W    1.724681
    28  W    1.613987
    29  W    1.681814
    30  O   -0.320144
    31  O   -0.365673
    32  O   -0.366354
    33  O   -0.357746
    34  O   -0.661561
    35  O   -0.669494
    36  O   -0.659427
    37  O   -0.661694
    38  O   -0.366700
    39  O   -0.366070
    40  O   -0.298580
    41  O   -0.364841
    42  O   -0.668822
    43  O   -0.662107
    44  O   -0.657641
    45  O   -0.665038
    46  O   -0.367029
    47  O   -0.320463
    48  O   -0.359887
    49  O   -0.363868
    50  W    1.668832
    51  W    1.674420
    52  W    1.682195
    53  W    1.681176
    54  O   -0.723102
    55  O   -0.705310
    56  O   -0.723913
    57  O   -0.721590
    58  O   -0.703206
    59  O   -0.724360
    60  O   -0.723288
    61  O   -0.718314
    62  O   -0.723040
    63  O   -0.705022
    64  O   -0.724288
    65  O   -0.724773
    66  O   -0.800714
    67  O   -0.799996
    68  O   -0.797431
    69  O   -0.807754
    70  K    0.865296
    71  K    0.862273
    72  K    0.862145
    73  V    1.187217
 Sum of Mulliken charges =  -1.00000

 Dipole moment (field-independent basis, Debye):
    X=             50.1874    Y=            -51.4004    Z=            -39.0017  Tot=             81.7430
 Quadrupole moment (field-independent basis, Debye-Ang):
   XX=          -1043.0962   YY=           -888.3899   ZZ=           -921.1478
   XY=            448.8546   XZ=            450.3707   YZ=           -479.5351

 Normal termination of Gaussian 16 at Mon Jun  3 06:29:46 2024.
