 Gaussian 16, Revision C.01,
 Gaussian 16:  ES64L-G16RevC.01  3-Jul-2019

 ----------------------------------------------------------------------
 # def2svp wb97xd scrf=(smd,solvent=acetonitrile) g09default scf=(xqc,m
 axcycle=64) force guess=read nosymm
 ----------------------------------------------------------------------

 ----------
 Title Card
 ----------
 Symbolic Z-matrix:
 Charge = -1 Multiplicity = 1

                          Input orientation:
 ---------------------------------------------------------------------
 Center     Atomic      Atomic             Coordinates (Angstroms)
 Number     Number       Type             X           Y           Z
 ---------------------------------------------------------------------
      1         17           0       -9.693983    8.278491   10.538148
      2          6           0       -8.392241    4.293641   12.198185
      3          6           0       -9.200552    3.969265   11.092216
      4          6           0      -10.105495    2.899542   11.225149
      5          6           0      -10.209631    2.191919   12.419262
      6          6           0       -9.399406    2.526382   13.505312
      7          6           0       -8.490089    3.579962   13.387868
      8          1           0       -7.680270    5.118924   12.131997
      9          1           0      -10.744692    2.633726   10.378336
     10          1           0      -10.931178    1.375884   12.506030
     11          1           0       -9.466774    1.961932   14.437758
     12          1           0       -7.857713    3.855972   14.235264
     13          6           0       -9.158030    4.725236    9.838781
     14          6           0       -8.442214    5.848811    9.623537
     15          1           0       -9.793591    4.339980    9.033188
     16          1           0       -8.469720    6.358268    8.660138
     17          1           0       -7.751673    6.251451   10.365118
     18          8           0       -0.974263   -1.825637    7.452434
     19          8           0       -8.372767   -1.320615    7.459990
     20          8           0       -7.005954    1.330192   10.490979
     21          8           0       -2.326091   -4.398484   10.555507
     22         74           0       -3.373149    0.715592    6.509479
     23         74           0       -5.996731   -3.847752    6.576374
     24         74           0       -3.578684    0.881297   11.393400
     25         74           0       -5.770608   -3.896066   11.465614
     26         74           0       -2.448976   -2.586802    6.372284
     27         74           0       -6.899322   -0.547103    6.346024
     28         74           0       -6.778191   -0.269349   11.593976
     29         74           0       -2.557424   -2.744478   11.625293
     30          8           0       -3.128117    1.913321    5.346204
     31          8           0       -6.140640   -5.097460    5.434439
     32          8           0       -2.652778    1.723629   12.542762
     33          8           0       -6.681142   -4.711548   12.643822
     34          8           0       -2.659135   -0.907349    5.587123
     35          8           0       -6.688451   -2.281528    5.621723
     36          8           0       -5.270395    0.538149   12.362384
     37          8           0       -4.055625   -3.548677   12.408309
     38          8           0        0.347178   -0.080576    9.267407
     39          8           0       -9.697169   -3.003677    9.317293
     40          8           0       -6.377221    3.410256    8.679452
     41          8           0       -2.975986   -6.494588    8.746489
     42          8           0       -1.754652    0.730509    7.485340
     43          8           0       -7.599682   -3.880842    7.551217
     44          8           0       -4.478176    2.193066   10.422828
     45          8           0       -4.863527   -5.243290   10.516970
     46          8           0       -1.623564   -3.520098    5.215769
     47          8           0       -7.773477    0.257097    5.146469
     48          8           0       -7.990824   -0.166130   12.777883
     49          8           0       -1.328413   -2.872106   12.791753
     50         74           0       -1.218262   -0.584512    8.838194
     51         74           0       -8.132137   -2.510309    8.874629
     52         74           0       -5.889780    1.840534    9.051023
     53         74           0       -3.465351   -4.920058    9.158665
     54          8           0       -4.219850   -3.124592    6.064837
     55          8           0       -5.126381   -0.053106    6.017546
     56          8           0       -6.162933   -2.022864   11.924968
     57          8           0       -3.153850   -0.993825   11.918835
     58          8           0       -4.339937    1.581573    7.850105
     59          8           0       -5.002224   -4.704587    7.920313
     60          8           0       -2.287912    0.552556   10.073786
     61          8           0       -7.053230   -3.622691   10.132730
     62          8           0       -2.569637   -3.916089    7.852867
     63          8           0       -6.795740    0.784660    7.800364
     64          8           0       -7.808745   -1.179403   10.158378
     65          8           0       -1.537567   -1.892132   10.149312
     66          8           0       -3.343938   -1.167437    8.013950
     67          8           0       -6.003470   -1.968736    8.035583
     68          8           0       -5.096387   -0.218993    9.945646
     69          8           0       -4.232836   -2.856186    9.975333
     70         19           0       -3.224369   -6.148883    5.648510
     71         19           0       -0.126328   -0.022647   12.318400
     72         19           0       -9.295465   -2.820250   12.398617
     73         23           0       -4.671243   -1.548773    8.990010
 ---------------------------------------------------------------------

 SCF Done:  E(UwB97XD) =  -7327.70222550     A.U. after   40 cycles

 Alpha  occ. eigenvalues --  -19.24661 -18.94009 -18.92932 -18.92874 -13.36506
 Alpha  occ. eigenvalues --  -13.36500 -13.36408 -10.69433 -10.69429 -10.69429
 Alpha  occ. eigenvalues --  -10.69428 -10.69425 -10.69420 -10.69336 -10.69332
 Alpha  occ. eigenvalues --  -10.69331 -10.33090 -10.32321 -10.32034 -10.31044
 Alpha  occ. eigenvalues --  -10.31029 -10.31023 -10.30585 -10.30554  -9.52457
 Alpha  occ. eigenvalues --   -7.27341  -7.27000  -7.26997  -3.21089  -3.21075
 Alpha  occ. eigenvalues --   -3.21058  -3.21022  -3.21015  -3.21004  -3.20993
 Alpha  occ. eigenvalues --   -3.20987  -3.20979  -3.20845  -3.20834  -3.20811
 Alpha  occ. eigenvalues --   -2.78752  -1.85333  -1.85281  -1.85272  -1.85237
 Alpha  occ. eigenvalues --   -1.85134  -1.85072  -1.85057  -1.85031  -1.85017
 Alpha  occ. eigenvalues --   -1.85009  -1.84989  -1.84937  -1.84387  -1.84273
 Alpha  occ. eigenvalues --   -1.84266  -1.84246  -1.84210  -1.84199  -1.84144
 Alpha  occ. eigenvalues --   -1.84120  -1.84097  -1.84086  -1.84056  -1.84049
 Alpha  occ. eigenvalues --   -1.83944  -1.83908  -1.83880  -1.83875  -1.83853
 Alpha  occ. eigenvalues --   -1.83818  -1.83790  -1.83782  -1.83774  -1.83681
 Alpha  occ. eigenvalues --   -1.83673  -1.83658  -1.81920  -1.81588  -1.81558
 Alpha  occ. eigenvalues --   -1.50209  -1.50207  -1.50121  -1.08614  -1.06992
 Alpha  occ. eigenvalues --   -1.06951  -1.06913  -1.06002  -1.05997  -1.05974
 Alpha  occ. eigenvalues --   -1.04578  -1.04569  -1.04561  -1.03956  -1.03950
 Alpha  occ. eigenvalues --   -1.03695  -1.03352  -1.03324  -1.03303  -1.03056
 Alpha  occ. eigenvalues --   -1.03043  -1.02255  -1.02228  -1.02222  -1.02104
 Alpha  occ. eigenvalues --   -1.02030  -1.02006  -1.01916  -1.01907  -1.01803
 Alpha  occ. eigenvalues --   -1.01771  -1.01751  -1.01616  -1.01585  -1.01573
 Alpha  occ. eigenvalues --   -1.01313  -1.00824  -1.00796  -1.00743  -1.00739
 Alpha  occ. eigenvalues --   -0.99991  -0.99934  -0.99875  -0.96233  -0.89358
 Alpha  occ. eigenvalues --   -0.85657  -0.85650  -0.85576  -0.85514  -0.85497
 Alpha  occ. eigenvalues --   -0.85496  -0.85470  -0.85417  -0.85408  -0.84310
 Alpha  occ. eigenvalues --   -0.82497  -0.80965  -0.71957  -0.69659  -0.65127
 Alpha  occ. eigenvalues --   -0.62302  -0.61692  -0.61635  -0.61608  -0.60693
 Alpha  occ. eigenvalues --   -0.58977  -0.58951  -0.58942  -0.58896  -0.58822
 Alpha  occ. eigenvalues --   -0.58748  -0.58721  -0.58684  -0.58545  -0.57356
 Alpha  occ. eigenvalues --   -0.57321  -0.57285  -0.57001  -0.56809  -0.56491
 Alpha  occ. eigenvalues --   -0.56445  -0.56404  -0.56008  -0.55855  -0.55366
 Alpha  occ. eigenvalues --   -0.55356  -0.55318  -0.54427  -0.54195  -0.54168
 Alpha  occ. eigenvalues --   -0.54016  -0.53661  -0.53606  -0.53594  -0.52796
 Alpha  occ. eigenvalues --   -0.52660  -0.52606  -0.52492  -0.52458  -0.51496
 Alpha  occ. eigenvalues --   -0.51481  -0.51470  -0.51388  -0.51328  -0.50825
 Alpha  occ. eigenvalues --   -0.50568  -0.50539  -0.50487  -0.50400  -0.50342
 Alpha  occ. eigenvalues --   -0.50285  -0.50097  -0.50053  -0.50033  -0.49783
 Alpha  occ. eigenvalues --   -0.49684  -0.49656  -0.49513  -0.49494  -0.49304
 Alpha  occ. eigenvalues --   -0.49261  -0.49200  -0.49099  -0.49043  -0.48969
 Alpha  occ. eigenvalues --   -0.48732  -0.48561  -0.48541  -0.48485  -0.47732
 Alpha  occ. eigenvalues --   -0.47708  -0.47242  -0.46488  -0.46052  -0.46034
 Alpha  occ. eigenvalues --   -0.45886  -0.45874  -0.45763  -0.45637  -0.45225
 Alpha  occ. eigenvalues --   -0.45146  -0.45139  -0.44867  -0.44682  -0.44519
 Alpha  occ. eigenvalues --   -0.44488  -0.44469  -0.44287  -0.44275  -0.44258
 Alpha  occ. eigenvalues --   -0.43418  -0.43184  -0.42570  -0.42542  -0.42476
 Alpha  occ. eigenvalues --   -0.42318  -0.42191  -0.42170  -0.42162  -0.41639
 Alpha  occ. eigenvalues --   -0.41624  -0.41580  -0.41046  -0.41002  -0.40803
 Alpha  occ. eigenvalues --   -0.40784  -0.40776  -0.40441  -0.40430  -0.40392
 Alpha  occ. eigenvalues --   -0.40235  -0.40208  -0.40191  -0.40148  -0.39889
 Alpha  occ. eigenvalues --   -0.39361  -0.39285  -0.39263  -0.39173  -0.39056
 Alpha  occ. eigenvalues --   -0.38975  -0.38942  -0.38852  -0.38762  -0.38722
 Alpha  occ. eigenvalues --   -0.38344  -0.38321  -0.38288  -0.38154  -0.37217
 Alpha  occ. eigenvalues --   -0.37198  -0.34676  -0.34643  -0.33701  -0.30500
 Alpha  occ. eigenvalues --   -0.25711
 Alpha virt. eigenvalues --   -0.11957  -0.06200  -0.06153  -0.04735  -0.04692
 Alpha virt. eigenvalues --   -0.04593  -0.01528  -0.01400  -0.01343  -0.01089
 Alpha virt. eigenvalues --   -0.00919  -0.00884  -0.00847  -0.00161  -0.00087

  Beta  occ. eigenvalues -- -197.10742-129.99101-129.99098-129.99006-101.62450
  Beta  occ. eigenvalues --  -22.43173 -19.28516 -19.28512 -19.28455 -19.28443
  Beta  occ. eigenvalues --  -19.28392 -19.28378 -19.28366 -19.28352 -19.28331
  Beta  occ. eigenvalues --  -19.28276 -19.28235 -19.28159 -19.26982 -19.26960
  Beta  occ. eigenvalues --  -19.26947 -19.26916 -19.26914 -19.26908 -19.26871
  Beta  occ. eigenvalues --  -19.26868 -19.26866 -19.26858 -19.26852 -19.26845
  Beta  occ. eigenvalues --  -19.26844 -19.26840 -19.26829 -19.26813 -19.26809
  Beta  occ. eigenvalues --  -19.26802 -19.26794 -19.26785 -19.26782 -19.26732
  Beta  occ. eigenvalues --  -19.26685 -19.26658 -19.24721 -19.24681 -19.24649
  Beta  occ. eigenvalues --  -19.24636 -18.93664 -18.91498 -18.91384 -13.36506
  Beta  occ. eigenvalues --  -13.36500 -13.36408 -10.69433 -10.69429 -10.69429
  Beta  occ. eigenvalues --  -10.69428 -10.69425 -10.69420 -10.69336 -10.69332
  Beta  occ. eigenvalues --  -10.69331 -10.33376 -10.32437 -10.31980 -10.31152
  Beta  occ. eigenvalues --  -10.31145 -10.31132 -10.30525 -10.30493  -9.52904
  Beta  occ. eigenvalues --   -7.28746  -7.27305  -7.27302  -3.21084  -3.21074
  Beta  occ. eigenvalues --   -3.21058  -3.21016  -3.21015  -3.20998  -3.20987
  Beta  occ. eigenvalues --   -3.20981  -3.20973  -3.20845  -3.20829  -3.20806
  Beta  occ. eigenvalues --   -2.74692  -1.85328  -1.85277  -1.85267  -1.85228
  Beta  occ. eigenvalues --   -1.85130  -1.85066  -1.85052  -1.85025  -1.85009
  Beta  occ. eigenvalues --   -1.84999  -1.84984  -1.84929  -1.84384  -1.84271
  Beta  occ. eigenvalues --   -1.84262  -1.84243  -1.84207  -1.84196  -1.84141
  Beta  occ. eigenvalues --   -1.84118  -1.84093  -1.84083  -1.84053  -1.84046
  Beta  occ. eigenvalues --   -1.83942  -1.83905  -1.83878  -1.83872  -1.83850
  Beta  occ. eigenvalues --   -1.83816  -1.83787  -1.83779  -1.83770  -1.83678
  Beta  occ. eigenvalues --   -1.83670  -1.83655  -1.80582  -1.75951  -1.75703
  Beta  occ. eigenvalues --   -1.50209  -1.50207  -1.50121  -1.08597  -1.06971
  Beta  occ. eigenvalues --   -1.06932  -1.06887  -1.06000  -1.05996  -1.05972
  Beta  occ. eigenvalues --   -1.04579  -1.04569  -1.04560  -1.03956  -1.03951
  Beta  occ. eigenvalues --   -1.03628  -1.03319  -1.03286  -1.03272  -1.03054
  Beta  occ. eigenvalues --   -1.03034  -1.02237  -1.02208  -1.02200  -1.02096
  Beta  occ. eigenvalues --   -1.02026  -1.01993  -1.01911  -1.01892  -1.01798
  Beta  occ. eigenvalues --   -1.01769  -1.01747  -1.01611  -1.01582  -1.01558
  Beta  occ. eigenvalues --   -1.01313  -1.00808  -1.00771  -1.00742  -1.00736
  Beta  occ. eigenvalues --   -0.99854  -0.99793  -0.99753  -0.96466  -0.90039
  Beta  occ. eigenvalues --   -0.85657  -0.85650  -0.85576  -0.85514  -0.85497
  Beta  occ. eigenvalues --   -0.85496  -0.85470  -0.85417  -0.85408  -0.84580
  Beta  occ. eigenvalues --   -0.84373  -0.82719  -0.72217  -0.69783  -0.65378
  Beta  occ. eigenvalues --   -0.62301  -0.61691  -0.61635  -0.61608  -0.60902
  Beta  occ. eigenvalues --   -0.58972  -0.58948  -0.58941  -0.58806  -0.58758
  Beta  occ. eigenvalues --   -0.58729  -0.58708  -0.58664  -0.58545  -0.57332
  Beta  occ. eigenvalues --   -0.57168  -0.57117  -0.57029  -0.56917  -0.56492
  Beta  occ. eigenvalues --   -0.56414  -0.56369  -0.55810  -0.55599  -0.55345
  Beta  occ. eigenvalues --   -0.55336  -0.55321  -0.54623  -0.54186  -0.54159
  Beta  occ. eigenvalues --   -0.54002  -0.53630  -0.53587  -0.53547  -0.52865
  Beta  occ. eigenvalues --   -0.52661  -0.52592  -0.52472  -0.52453  -0.51483
  Beta  occ. eigenvalues --   -0.51456  -0.51450  -0.51327  -0.51269  -0.51025
  Beta  occ. eigenvalues --   -0.50555  -0.50472  -0.50464  -0.50339  -0.50246
  Beta  occ. eigenvalues --   -0.50181  -0.50064  -0.50053  -0.50002  -0.49731
  Beta  occ. eigenvalues --   -0.49663  -0.49625  -0.49503  -0.49484  -0.49303
  Beta  occ. eigenvalues --   -0.49237  -0.49199  -0.49064  -0.49023  -0.48944
  Beta  occ. eigenvalues --   -0.48724  -0.48560  -0.48537  -0.48478  -0.47928
  Beta  occ. eigenvalues --   -0.47691  -0.47649  -0.46060  -0.45907  -0.45878
  Beta  occ. eigenvalues --   -0.45811  -0.45679  -0.45577  -0.45225  -0.45166
  Beta  occ. eigenvalues --   -0.45146  -0.45058  -0.44866  -0.44681  -0.44490
  Beta  occ. eigenvalues --   -0.44477  -0.44432  -0.44282  -0.44238  -0.44216
  Beta  occ. eigenvalues --   -0.43412  -0.43290  -0.42523  -0.42484  -0.42440
  Beta  occ. eigenvalues --   -0.42280  -0.42247  -0.42136  -0.42123  -0.41649
  Beta  occ. eigenvalues --   -0.41614  -0.41561  -0.41455  -0.41049  -0.40967
  Beta  occ. eigenvalues --   -0.40774  -0.40739  -0.40714  -0.40427  -0.40418
  Beta  occ. eigenvalues --   -0.40377  -0.40190  -0.40178  -0.40161  -0.39831
  Beta  occ. eigenvalues --   -0.39667  -0.39359  -0.39189  -0.39131  -0.39129
  Beta  occ. eigenvalues --   -0.38943  -0.38912  -0.38855  -0.38744  -0.38713
  Beta  occ. eigenvalues --   -0.38675  -0.38337  -0.38313  -0.38281  -0.37667
  Beta  occ. eigenvalues --   -0.37218  -0.37194  -0.35607  -0.35570  -0.33990
  Beta  occ. eigenvalues --   -0.30882
  Beta virt. eigenvalues --   -0.06198  -0.06153  -0.04734  -0.04691  -0.04592
  Beta virt. eigenvalues --   -0.01524  -0.01395  -0.01338  -0.01083  -0.00914
  Beta virt. eigenvalues --   -0.00879  -0.00842  -0.00151  -0.00076  -0.00044

 Mulliken charges and spin densities:
               1          2
     1  Cl  -0.353966  -0.603027
     2  C   -0.036305  -0.098303
     3  C    0.010928   0.060266
     4  C   -0.035304  -0.093999
     5  C   -0.032326   0.059615
     6  C    0.009081  -0.117551
     7  C   -0.046881   0.060086
     8  H    0.049572   0.004229
     9  H    0.051203   0.004022
    10  H    0.056439  -0.002118
    11  H    0.057757   0.005156
    12  H    0.054347  -0.002106
    13  C    0.005469  -0.267064
    14  C   -0.037518  -0.018586
    15  H    0.075932   0.010952
    16  H    0.095037   0.000931
    17  H    0.090464  -0.001094
    18  O   -0.670386  -0.000558
    19  O   -0.668628  -0.000512
    20  O   -0.665460  -0.001433
    21  O   -0.671090  -0.000535
    22  W    1.712570   0.000355
    23  W    1.655662   0.000485
    24  W    1.668527   0.000165
    25  W    1.678023   0.000220
    26  W    1.658915   0.002742
    27  W    1.706750   0.002470
    28  W    1.605721   0.003327
    29  W    1.667525   0.002844
    30  O   -0.350076  -0.000525
    31  O   -0.394072  -0.000566
    32  O   -0.394954  -0.000617
    33  O   -0.386603  -0.000564
    34  O   -0.669961  -0.000304
    35  O   -0.676848  -0.000038
    36  O   -0.668361  -0.000148
    37  O   -0.670636  -0.000216
    38  O   -0.396656   0.002093
    39  O   -0.396271   0.002142
    40  O   -0.341042   0.000500
    41  O   -0.395006   0.002129
    42  O   -0.676343   0.000064
    43  O   -0.670699   0.000166
    44  O   -0.666315   0.000283
    45  O   -0.673293   0.000108
    46  O   -0.397027   0.002298
    47  O   -0.352223   0.002166
    48  O   -0.393360   0.001811
    49  O   -0.394073   0.002330
    50  W    1.654880   0.002833
    51  W    1.660044   0.002738
    52  W    1.675356   0.003842
    53  W    1.666459   0.002683
    54  O   -0.721059   0.000091
    55  O   -0.703580   0.000001
    56  O   -0.720829   0.000129
    57  O   -0.719560   0.000062
    58  O   -0.701079   0.000083
    59  O   -0.721746   0.000161
    60  O   -0.720891   0.000213
    61  O   -0.716100   0.000203
    62  O   -0.721426  -0.000177
    63  O   -0.703687  -0.000056
    64  O   -0.723383  -0.000189
    65  O   -0.722972  -0.000199
    66  O   -0.882991   0.005242
    67  O   -0.883054   0.007301
    68  O   -0.880483   0.007288
    69  O   -0.887589   0.006611
    70  K    0.851656   0.000195
    71  K    0.848401   0.000223
    72  K    0.848301   0.000220
    73  V    1.197094   0.936412
 Sum of Mulliken charges =  -1.00000  -0.00000

 Dipole moment (field-independent basis, Debye):
    X=             27.8091    Y=            -13.8400    Z=            -30.8858  Tot=             43.8044
 Quadrupole moment (field-independent basis, Debye-Ang):
   XX=           -757.0701   YY=           -710.9484   ZZ=           -785.9026
   XY=            127.3571   XZ=            172.5648   YZ=            -94.6203

 Normal termination of Gaussian 16 at Mon Jun  3 06:19:57 2024.
