 Gaussian 16, Revision C.01,
 Gaussian 16:  ES64L-G16RevC.01  3-Jul-2019

 ----------------------------------------------------------------------
 # def2svp wb97xd scrf=(smd,solvent=acetonitrile) g09default scf=(xqc,m
 axcycle=64) force guess=read nosymm
 ----------------------------------------------------------------------

 ----------
 Title Card
 ----------
 Symbolic Z-matrix:
 Charge = -1 Multiplicity = 1

                          Input orientation:
 ---------------------------------------------------------------------
 Center     Atomic      Atomic             Coordinates (Angstroms)
 Number     Number       Type             X           Y           Z
 ---------------------------------------------------------------------
      1         17           0       -9.700658    8.280117   10.539047
      2          6           0       -8.395689    4.296699   12.197639
      3          6           0       -9.206031    3.973248   11.092755
      4          6           0      -10.109357    2.902174   11.226201
      5          6           0      -10.209740    2.192417   12.419284
      6          6           0       -9.397568    2.526132   13.504244
      7          6           0       -8.489814    3.581022   13.386260
      8          1           0       -7.684964    5.122951   12.130797
      9          1           0      -10.750037    2.636213   10.380423
     10          1           0      -10.929519    1.374792   12.506423
     11          1           0       -9.462052    1.960081   14.435835
     12          1           0       -7.855349    3.856091   14.232448
     13          6           0       -9.164513    4.730563    9.840006
     14          6           0       -8.442880    5.850069    9.622590
     15          1           0       -9.804938    4.349745    9.036178
     16          1           0       -8.468901    6.358668    8.658690
     17          1           0       -7.747935    6.249092   10.362118
     18          8           0       -0.973916   -1.827039    7.451547
     19          8           0       -8.372161   -1.319849    7.459532
     20          8           0       -7.005381    1.329036   10.492230
     21          8           0       -2.325085   -4.398903   10.555681
     22         74           0       -3.371595    0.716424    6.511400
     23         74           0       -5.997538   -3.849034    6.577970
     24         74           0       -3.576858    0.881711   11.392289
     25         74           0       -5.770792   -3.897918   11.463893
     26         74           0       -2.450105   -2.586880    6.370363
     27         74           0       -6.897330   -0.547526    6.344917
     28         74           0       -6.775871   -0.270487   11.595917
     29         74           0       -2.558044   -2.744703   11.626532
     30          8           0       -3.125563    1.915014    5.348805
     31          8           0       -6.142343   -5.098825    5.436475
     32          8           0       -2.650863    1.724708   12.541034
     33          8           0       -6.680972   -4.714490   12.641648
     34          8           0       -2.658444   -0.906687    5.587121
     35          8           0       -6.687654   -2.282093    5.621965
     36          8           0       -5.268510    0.537586   12.363014
     37          8           0       -4.055777   -3.549923   12.408090
     38          8           0        0.349017   -0.084935    9.266700
     39          8           0       -9.697994   -3.000230    9.317465
     40          8           0       -6.379458    3.409091    8.680959
     41          8           0       -2.972933   -6.494295    8.746452
     42          8           0       -1.753310    0.729816    7.486565
     43          8           0       -7.600217   -3.880515    7.552038
     44          8           0       -4.477819    2.192849   10.422872
     45          8           0       -4.862635   -5.244067   10.515711
     46          8           0       -1.625489   -3.519989    5.213414
     47          8           0       -7.770889    0.256527    5.145011
     48          8           0       -7.988200   -0.167442   12.780236
     49          8           0       -1.328908   -2.872918   12.792823
     50         74           0       -1.216890   -0.587536    8.837838
     51         74           0       -8.132444   -2.508069    8.874809
     52         74           0       -5.890706    1.839418    9.051875
     53         74           0       -3.462820   -4.920088    9.158392
     54          8           0       -4.220277   -3.124791    6.064506
     55          8           0       -5.124914   -0.052833    6.017614
     56          8           0       -6.162087   -2.024242   11.925002
     57          8           0       -3.152816   -0.994070   11.919738
     58          8           0       -4.339532    1.581551    7.851008
     59          8           0       -5.001357   -4.705010    7.920285
     60          8           0       -2.286705    0.551334   10.073661
     61          8           0       -7.053685   -3.622928   10.132360
     62          8           0       -2.568849   -3.916212    7.852049
     63          8           0       -6.795147    0.783945    7.800505
     64          8           0       -7.807936   -1.179078   10.159054
     65          8           0       -1.537503   -1.893577   10.149502
     66          8           0       -3.343477   -1.167999    8.013736
     67          8           0       -6.003050   -1.968838    8.035882
     68          8           0       -5.095386   -0.219639    9.946183
     69          8           0       -4.232091   -2.856640    9.975276
     70         19           0       -3.225044   -6.150136    5.648458
     71         19           0       -0.125018   -0.027245   12.319657
     72         19           0       -9.296869   -2.820690   12.396772
     73         23           0       -4.670591   -1.549123    8.990105
 ---------------------------------------------------------------------

 SCF Done:  E(RwB97XD) =  -7327.70228222     A.U. after   13 cycles

 Alpha  occ. eigenvalues -- -197.29323-130.00127-130.00040-130.00012-101.48315
 Alpha  occ. eigenvalues --  -22.62462 -19.33618 -19.33609 -19.33607 -19.33583
 Alpha  occ. eigenvalues --  -19.30732 -19.30694 -19.30689 -19.30686 -19.30665
 Alpha  occ. eigenvalues --  -19.30662 -19.30658 -19.30637 -19.30587 -19.30365
 Alpha  occ. eigenvalues --  -19.30344 -19.30174 -19.29376 -19.29359 -19.29357
 Alpha  occ. eigenvalues --  -19.29341 -19.29335 -19.29317 -19.29306 -19.29283
 Alpha  occ. eigenvalues --  -19.29241 -19.29226 -19.29213 -19.29206 -19.29190
 Alpha  occ. eigenvalues --  -19.29161 -19.29129 -19.29123 -19.29119 -19.29117
 Alpha  occ. eigenvalues --  -19.29108 -19.29093 -19.29045 -19.29003 -19.28982
 Alpha  occ. eigenvalues --  -19.28902 -19.11417 -19.11408 -19.11400 -13.37529
 Alpha  occ. eigenvalues --  -13.37433 -13.37408 -10.70458 -10.70451 -10.70451
 Alpha  occ. eigenvalues --  -10.70364 -10.70357 -10.70352 -10.70339 -10.70332
 Alpha  occ. eigenvalues --  -10.70331 -10.29876 -10.29319 -10.29304 -10.29045
 Alpha  occ. eigenvalues --  -10.28989 -10.28914 -10.28210 -10.27469  -9.38786
 Alpha  occ. eigenvalues --   -7.13616  -7.13560  -7.13557  -3.23300  -3.23289
 Alpha  occ. eigenvalues --   -3.23284  -3.23282  -3.23267  -3.23237  -3.23234
 Alpha  occ. eigenvalues --   -3.23230  -3.23217  -3.22951  -3.22936  -3.22762
 Alpha  occ. eigenvalues --   -2.91744  -1.94134  -1.94104  -1.94094  -1.87708
 Alpha  occ. eigenvalues --   -1.87656  -1.87647  -1.87611  -1.87483  -1.87461
 Alpha  occ. eigenvalues --   -1.87457  -1.87443  -1.87419  -1.87264  -1.87235
 Alpha  occ. eigenvalues --   -1.87088  -1.86624  -1.86504  -1.86495  -1.86480
 Alpha  occ. eigenvalues --   -1.86448  -1.86426  -1.86340  -1.86311  -1.86301
 Alpha  occ. eigenvalues --   -1.86291  -1.86270  -1.86258  -1.86140  -1.86126
 Alpha  occ. eigenvalues --   -1.86113  -1.86100  -1.86032  -1.86015  -1.85985
 Alpha  occ. eigenvalues --   -1.85911  -1.85889  -1.85792  -1.85714  -1.85657
 Alpha  occ. eigenvalues --   -1.51217  -1.51125  -1.51107  -1.13020  -1.11245
 Alpha  occ. eigenvalues --   -1.11161  -1.11159  -1.08969  -1.08532  -1.08500
 Alpha  occ. eigenvalues --   -1.08312  -1.07557  -1.07487  -1.07482  -1.06899
 Alpha  occ. eigenvalues --   -1.06887  -1.06869  -1.06295  -1.06271  -1.05360
 Alpha  occ. eigenvalues --   -1.05353  -1.04977  -1.04972  -1.04955  -1.04234
 Alpha  occ. eigenvalues --   -1.04227  -1.04192  -1.04047  -1.04015  -1.03998
 Alpha  occ. eigenvalues --   -1.03940  -1.03923  -1.03894  -1.03765  -1.03752
 Alpha  occ. eigenvalues --   -1.03618  -1.03572  -1.03304  -1.03274  -1.03160
 Alpha  occ. eigenvalues --   -1.03142  -1.03079  -1.02993  -0.94367  -0.86682
 Alpha  occ. eigenvalues --   -0.86600  -0.86585  -0.86515  -0.86492  -0.86491
 Alpha  occ. eigenvalues --   -0.86416  -0.86390  -0.86382  -0.86380  -0.82809
 Alpha  occ. eigenvalues --   -0.79731  -0.71545  -0.69661  -0.68001  -0.64585
 Alpha  occ. eigenvalues --   -0.63955  -0.63890  -0.63869  -0.63275  -0.63258
 Alpha  occ. eigenvalues --   -0.63148  -0.62957  -0.62662  -0.62599  -0.61940
 Alpha  occ. eigenvalues --   -0.61599  -0.61578  -0.61482  -0.61231  -0.61210
 Alpha  occ. eigenvalues --   -0.61170  -0.60420  -0.59465  -0.59441  -0.59424
 Alpha  occ. eigenvalues --   -0.59378  -0.59349  -0.58672  -0.58008  -0.57974
 Alpha  occ. eigenvalues --   -0.57893  -0.57055  -0.57032  -0.56999  -0.56267
 Alpha  occ. eigenvalues --   -0.56245  -0.56098  -0.55709  -0.54871  -0.54808
 Alpha  occ. eigenvalues --   -0.54767  -0.54525  -0.54237  -0.54116  -0.54101
 Alpha  occ. eigenvalues --   -0.54032  -0.53963  -0.53269  -0.53231  -0.53095
 Alpha  occ. eigenvalues --   -0.53052  -0.52913  -0.52740  -0.52710  -0.52657
 Alpha  occ. eigenvalues --   -0.52624  -0.52515  -0.52460  -0.52410  -0.51625
 Alpha  occ. eigenvalues --   -0.51607  -0.51381  -0.51343  -0.51317  -0.51260
 Alpha  occ. eigenvalues --   -0.51192  -0.51168  -0.50977  -0.50803  -0.50624
 Alpha  occ. eigenvalues --   -0.50599  -0.50599  -0.49957  -0.49939  -0.49297
 Alpha  occ. eigenvalues --   -0.49264  -0.49237  -0.49217  -0.49164  -0.49090
 Alpha  occ. eigenvalues --   -0.48906  -0.48082  -0.48037  -0.47923  -0.47637
 Alpha  occ. eigenvalues --   -0.47398  -0.47295  -0.47250  -0.47041  -0.46977
 Alpha  occ. eigenvalues --   -0.46917  -0.46629  -0.46625  -0.46468  -0.46216
 Alpha  occ. eigenvalues --   -0.46162  -0.46123  -0.45665  -0.45110  -0.44935
 Alpha  occ. eigenvalues --   -0.44901  -0.44202  -0.44159  -0.44041  -0.43538
 Alpha  occ. eigenvalues --   -0.43325  -0.43282  -0.43145  -0.43139  -0.43101
 Alpha  occ. eigenvalues --   -0.42774  -0.42749  -0.42713  -0.42625  -0.42609
 Alpha  occ. eigenvalues --   -0.42540  -0.42502  -0.42490  -0.42315  -0.42308
 Alpha  occ. eigenvalues --   -0.42281  -0.42060  -0.41923  -0.41882  -0.41870
 Alpha  occ. eigenvalues --   -0.41266  -0.41245  -0.41189  -0.41108  -0.40598
 Alpha  occ. eigenvalues --   -0.40585  -0.40575  -0.40344  -0.39458  -0.39446
 Alpha  occ. eigenvalues --   -0.37069  -0.32569  -0.29225  -0.25093  -0.25064
 Alpha  occ. eigenvalues --   -0.23448
 Alpha virt. eigenvalues --   -0.09369  -0.09167  -0.08315  -0.08269  -0.06879
 Alpha virt. eigenvalues --   -0.06853  -0.06762  -0.04382  -0.04101  -0.04047
 Alpha virt. eigenvalues --   -0.03727  -0.03502  -0.03441  -0.03223  -0.03070

 Mulliken charges:
               1
     1  Cl  -0.896983
     2  C   -0.082252
     3  C    0.047629
     4  C   -0.081539
     5  C   -0.034629
     6  C   -0.033018
     7  C   -0.048553
     8  H    0.028713
     9  H    0.029398
    10  H    0.041256
    11  H    0.037279
    12  H    0.039433
    13  C   -0.128114
    14  C    0.035719
    15  H    0.019328
    16  H    0.035527
    17  H    0.028541
    18  O   -0.661245
    19  O   -0.659530
    20  O   -0.654661
    21  O   -0.661883
    22  W    1.729070
    23  W    1.669549
    24  W    1.680834
    25  W    1.691915
    26  W    1.672221
    27  W    1.724405
    28  W    1.613620
    29  W    1.681265
    30  O   -0.320398
    31  O   -0.365539
    32  O   -0.366189
    33  O   -0.357655
    34  O   -0.661440
    35  O   -0.669396
    36  O   -0.659234
    37  O   -0.661522
    38  O   -0.366592
    39  O   -0.366341
    40  O   -0.298831
    41  O   -0.364715
    42  O   -0.668658
    43  O   -0.661895
    44  O   -0.657503
    45  O   -0.664922
    46  O   -0.366883
    47  O   -0.320384
    48  O   -0.359913
    49  O   -0.364058
    50  W    1.668450
    51  W    1.673839
    52  W    1.682103
    53  W    1.680637
    54  O   -0.722747
    55  O   -0.705103
    56  O   -0.723727
    57  O   -0.721338
    58  O   -0.703017
    59  O   -0.724202
    60  O   -0.722961
    61  O   -0.718098
    62  O   -0.722837
    63  O   -0.704860
    64  O   -0.724015
    65  O   -0.724665
    66  O   -0.800669
    67  O   -0.799901
    68  O   -0.797437
    69  O   -0.807661
    70  K    0.865470
    71  K    0.862420
    72  K    0.862255
    73  V    1.186837
 Sum of Mulliken charges =  -1.00000

 Dipole moment (field-independent basis, Debye):
    X=             50.2204    Y=            -51.4522    Z=            -39.0126  Tot=             81.8010
 Quadrupole moment (field-independent basis, Debye-Ang):
   XX=          -1043.6913   YY=           -888.5625   ZZ=           -921.3639
   XY=            449.4346   XZ=            450.8825   YZ=           -480.0716

 Normal termination of Gaussian 16 at Mon Jun  3 07:04:17 2024.
