 Gaussian 16, Revision C.01,
 Gaussian 16:  ES64L-G16RevC.01  3-Jul-2019

 ----------------------------------------------------------------------
 # def2svp wb97xd scrf=(smd,solvent=acetonitrile) g09default scf=(xqc,m
 axcycle=64) force guess=read nosymm
 ----------------------------------------------------------------------

 ----------
 Title Card
 ----------
 Symbolic Z-matrix:
 Charge = -1 Multiplicity = 1

                          Input orientation:
 ---------------------------------------------------------------------
 Center     Atomic      Atomic             Coordinates (Angstroms)
 Number     Number       Type             X           Y           Z
 ---------------------------------------------------------------------
      1         17           0       -9.700658    8.280117   10.539047
      2          6           0       -8.395689    4.296699   12.197639
      3          6           0       -9.206031    3.973248   11.092755
      4          6           0      -10.109357    2.902174   11.226201
      5          6           0      -10.209740    2.192417   12.419284
      6          6           0       -9.397568    2.526132   13.504244
      7          6           0       -8.489814    3.581022   13.386260
      8          1           0       -7.684964    5.122951   12.130797
      9          1           0      -10.750037    2.636213   10.380423
     10          1           0      -10.929519    1.374792   12.506423
     11          1           0       -9.462052    1.960081   14.435835
     12          1           0       -7.855349    3.856091   14.232448
     13          6           0       -9.164513    4.730563    9.840006
     14          6           0       -8.442880    5.850069    9.622590
     15          1           0       -9.804938    4.349745    9.036178
     16          1           0       -8.468901    6.358668    8.658690
     17          1           0       -7.747935    6.249092   10.362118
     18          8           0       -0.973916   -1.827039    7.451547
     19          8           0       -8.372161   -1.319849    7.459532
     20          8           0       -7.005381    1.329036   10.492230
     21          8           0       -2.325085   -4.398903   10.555681
     22         74           0       -3.371595    0.716424    6.511400
     23         74           0       -5.997538   -3.849034    6.577970
     24         74           0       -3.576858    0.881711   11.392289
     25         74           0       -5.770792   -3.897918   11.463893
     26         74           0       -2.450105   -2.586880    6.370363
     27         74           0       -6.897330   -0.547526    6.344917
     28         74           0       -6.775871   -0.270487   11.595917
     29         74           0       -2.558044   -2.744703   11.626532
     30          8           0       -3.125563    1.915014    5.348805
     31          8           0       -6.142343   -5.098825    5.436475
     32          8           0       -2.650863    1.724708   12.541034
     33          8           0       -6.680972   -4.714490   12.641648
     34          8           0       -2.658444   -0.906687    5.587121
     35          8           0       -6.687654   -2.282093    5.621965
     36          8           0       -5.268510    0.537586   12.363014
     37          8           0       -4.055777   -3.549923   12.408090
     38          8           0        0.349017   -0.084935    9.266700
     39          8           0       -9.697994   -3.000230    9.317465
     40          8           0       -6.379458    3.409091    8.680959
     41          8           0       -2.972933   -6.494295    8.746452
     42          8           0       -1.753310    0.729816    7.486565
     43          8           0       -7.600217   -3.880515    7.552038
     44          8           0       -4.477819    2.192849   10.422872
     45          8           0       -4.862635   -5.244067   10.515711
     46          8           0       -1.625489   -3.519989    5.213414
     47          8           0       -7.770889    0.256527    5.145011
     48          8           0       -7.988200   -0.167442   12.780236
     49          8           0       -1.328908   -2.872918   12.792823
     50         74           0       -1.216890   -0.587536    8.837838
     51         74           0       -8.132444   -2.508069    8.874809
     52         74           0       -5.890706    1.839418    9.051875
     53         74           0       -3.462820   -4.920088    9.158392
     54          8           0       -4.220277   -3.124791    6.064506
     55          8           0       -5.124914   -0.052833    6.017614
     56          8           0       -6.162087   -2.024242   11.925002
     57          8           0       -3.152816   -0.994070   11.919738
     58          8           0       -4.339532    1.581551    7.851008
     59          8           0       -5.001357   -4.705010    7.920285
     60          8           0       -2.286705    0.551334   10.073661
     61          8           0       -7.053685   -3.622928   10.132360
     62          8           0       -2.568849   -3.916212    7.852049
     63          8           0       -6.795147    0.783945    7.800505
     64          8           0       -7.807936   -1.179078   10.159054
     65          8           0       -1.537503   -1.893577   10.149502
     66          8           0       -3.343477   -1.167999    8.013736
     67          8           0       -6.003050   -1.968838    8.035882
     68          8           0       -5.095386   -0.219639    9.946183
     69          8           0       -4.232091   -2.856640    9.975276
     70         19           0       -3.225044   -6.150136    5.648458
     71         19           0       -0.125018   -0.027245   12.319657
     72         19           0       -9.296869   -2.820690   12.396772
     73         23           0       -4.670591   -1.549123    8.990105
 ---------------------------------------------------------------------

 SCF Done:  E(UwB97XD) =  -7327.70225215     A.U. after   32 cycles

 Alpha  occ. eigenvalues --  -19.24661 -18.94008 -18.92929 -18.92875 -13.36511
 Alpha  occ. eigenvalues --  -13.36502 -13.36411 -10.69437 -10.69434 -10.69433
 Alpha  occ. eigenvalues --  -10.69431 -10.69427 -10.69422 -10.69339 -10.69335
 Alpha  occ. eigenvalues --  -10.69334 -10.33092 -10.32327 -10.32036 -10.31046
 Alpha  occ. eigenvalues --  -10.31027 -10.31023 -10.30583 -10.30554  -9.52468
 Alpha  occ. eigenvalues --   -7.27353  -7.27011  -7.27008  -3.21087  -3.21072
 Alpha  occ. eigenvalues --   -3.21054  -3.21017  -3.21012  -3.21001  -3.20990
 Alpha  occ. eigenvalues --   -3.20983  -3.20974  -3.20842  -3.20832  -3.20808
 Alpha  occ. eigenvalues --   -2.78752  -1.85330  -1.85279  -1.85270  -1.85233
 Alpha  occ. eigenvalues --   -1.85132  -1.85069  -1.85054  -1.85028  -1.85015
 Alpha  occ. eigenvalues --   -1.85006  -1.84985  -1.84936  -1.84385  -1.84271
 Alpha  occ. eigenvalues --   -1.84264  -1.84243  -1.84207  -1.84197  -1.84142
 Alpha  occ. eigenvalues --   -1.84117  -1.84094  -1.84083  -1.84053  -1.84046
 Alpha  occ. eigenvalues --   -1.83942  -1.83905  -1.83878  -1.83872  -1.83851
 Alpha  occ. eigenvalues --   -1.83816  -1.83787  -1.83779  -1.83771  -1.83679
 Alpha  occ. eigenvalues --   -1.83671  -1.83655  -1.81920  -1.81587  -1.81558
 Alpha  occ. eigenvalues --   -1.50213  -1.50209  -1.50123  -1.08612  -1.06991
 Alpha  occ. eigenvalues --   -1.06950  -1.06911  -1.06000  -1.05995  -1.05971
 Alpha  occ. eigenvalues --   -1.04576  -1.04567  -1.04559  -1.03952  -1.03946
 Alpha  occ. eigenvalues --   -1.03694  -1.03350  -1.03322  -1.03301  -1.03056
 Alpha  occ. eigenvalues --   -1.03044  -1.02254  -1.02226  -1.02221  -1.02102
 Alpha  occ. eigenvalues --   -1.02030  -1.02008  -1.01914  -1.01906  -1.01803
 Alpha  occ. eigenvalues --   -1.01770  -1.01750  -1.01614  -1.01581  -1.01573
 Alpha  occ. eigenvalues --   -1.01312  -1.00824  -1.00796  -1.00744  -1.00740
 Alpha  occ. eigenvalues --   -0.99990  -0.99933  -0.99874  -0.96233  -0.89356
 Alpha  occ. eigenvalues --   -0.85659  -0.85654  -0.85578  -0.85516  -0.85501
 Alpha  occ. eigenvalues --   -0.85500  -0.85472  -0.85419  -0.85411  -0.84311
 Alpha  occ. eigenvalues --   -0.82494  -0.80969  -0.71957  -0.69659  -0.65129
 Alpha  occ. eigenvalues --   -0.62297  -0.61687  -0.61631  -0.61604  -0.60697
 Alpha  occ. eigenvalues --   -0.58974  -0.58948  -0.58940  -0.58896  -0.58822
 Alpha  occ. eigenvalues --   -0.58743  -0.58717  -0.58679  -0.58543  -0.57354
 Alpha  occ. eigenvalues --   -0.57319  -0.57283  -0.56999  -0.56807  -0.56489
 Alpha  occ. eigenvalues --   -0.56443  -0.56402  -0.56006  -0.55853  -0.55366
 Alpha  occ. eigenvalues --   -0.55356  -0.55318  -0.54427  -0.54196  -0.54170
 Alpha  occ. eigenvalues --   -0.54017  -0.53656  -0.53601  -0.53588  -0.52794
 Alpha  occ. eigenvalues --   -0.52659  -0.52604  -0.52490  -0.52456  -0.51495
 Alpha  occ. eigenvalues --   -0.51481  -0.51470  -0.51388  -0.51328  -0.50824
 Alpha  occ. eigenvalues --   -0.50566  -0.50538  -0.50485  -0.50399  -0.50341
 Alpha  occ. eigenvalues --   -0.50284  -0.50097  -0.50054  -0.50035  -0.49783
 Alpha  occ. eigenvalues --   -0.49685  -0.49656  -0.49512  -0.49492  -0.49304
 Alpha  occ. eigenvalues --   -0.49261  -0.49199  -0.49094  -0.49036  -0.48965
 Alpha  occ. eigenvalues --   -0.48731  -0.48560  -0.48539  -0.48484  -0.47736
 Alpha  occ. eigenvalues --   -0.47712  -0.47245  -0.46488  -0.46052  -0.46032
 Alpha  occ. eigenvalues --   -0.45885  -0.45873  -0.45762  -0.45636  -0.45224
 Alpha  occ. eigenvalues --   -0.45145  -0.45137  -0.44870  -0.44687  -0.44521
 Alpha  occ. eigenvalues --   -0.44489  -0.44467  -0.44285  -0.44276  -0.44259
 Alpha  occ. eigenvalues --   -0.43416  -0.43190  -0.42572  -0.42543  -0.42477
 Alpha  occ. eigenvalues --   -0.42316  -0.42184  -0.42167  -0.42160  -0.41639
 Alpha  occ. eigenvalues --   -0.41623  -0.41579  -0.41045  -0.41002  -0.40803
 Alpha  occ. eigenvalues --   -0.40784  -0.40776  -0.40444  -0.40433  -0.40397
 Alpha  occ. eigenvalues --   -0.40236  -0.40208  -0.40190  -0.40149  -0.39889
 Alpha  occ. eigenvalues --   -0.39361  -0.39286  -0.39265  -0.39175  -0.39056
 Alpha  occ. eigenvalues --   -0.38979  -0.38945  -0.38856  -0.38763  -0.38724
 Alpha  occ. eigenvalues --   -0.38345  -0.38322  -0.38289  -0.38162  -0.37216
 Alpha  occ. eigenvalues --   -0.37197  -0.34682  -0.34650  -0.33704  -0.30500
 Alpha  occ. eigenvalues --   -0.25710
 Alpha virt. eigenvalues --   -0.11959  -0.06185  -0.06138  -0.04723  -0.04679
 Alpha virt. eigenvalues --   -0.04578  -0.01526  -0.01396  -0.01338  -0.01085
 Alpha virt. eigenvalues --   -0.00916  -0.00880  -0.00843  -0.00158  -0.00085

  Beta  occ. eigenvalues -- -197.10740-129.99104-129.99102-129.99008-101.62462
  Beta  occ. eigenvalues --  -22.43171 -19.28515 -19.28513 -19.28452 -19.28441
  Beta  occ. eigenvalues --  -19.28390 -19.28375 -19.28364 -19.28354 -19.28331
  Beta  occ. eigenvalues --  -19.28268 -19.28231 -19.28159 -19.26986 -19.26962
  Beta  occ. eigenvalues --  -19.26949 -19.26920 -19.26917 -19.26910 -19.26872
  Beta  occ. eigenvalues --  -19.26869 -19.26868 -19.26860 -19.26854 -19.26846
  Beta  occ. eigenvalues --  -19.26845 -19.26841 -19.26831 -19.26814 -19.26812
  Beta  occ. eigenvalues --  -19.26804 -19.26795 -19.26786 -19.26780 -19.26732
  Beta  occ. eigenvalues --  -19.26686 -19.26656 -19.24720 -19.24682 -19.24652
  Beta  occ. eigenvalues --  -19.24635 -18.93663 -18.91494 -18.91386 -13.36511
  Beta  occ. eigenvalues --  -13.36502 -13.36411 -10.69437 -10.69434 -10.69433
  Beta  occ. eigenvalues --  -10.69431 -10.69427 -10.69422 -10.69339 -10.69334
  Beta  occ. eigenvalues --  -10.69334 -10.33377 -10.32443 -10.31983 -10.31152
  Beta  occ. eigenvalues --  -10.31147 -10.31130 -10.30524 -10.30494  -9.52916
  Beta  occ. eigenvalues --   -7.28759  -7.27317  -7.27314  -3.21081  -3.21071
  Beta  occ. eigenvalues --   -3.21054  -3.21012  -3.21011  -3.20995  -3.20984
  Beta  occ. eigenvalues --   -3.20977  -3.20968  -3.20842  -3.20827  -3.20803
  Beta  occ. eigenvalues --   -2.74691  -1.85325  -1.85275  -1.85265  -1.85225
  Beta  occ. eigenvalues --   -1.85127  -1.85063  -1.85049  -1.85021  -1.85007
  Beta  occ. eigenvalues --   -1.84997  -1.84980  -1.84928  -1.84382  -1.84269
  Beta  occ. eigenvalues --   -1.84260  -1.84241  -1.84204  -1.84193  -1.84139
  Beta  occ. eigenvalues --   -1.84115  -1.84091  -1.84080  -1.84050  -1.84043
  Beta  occ. eigenvalues --   -1.83939  -1.83902  -1.83875  -1.83869  -1.83848
  Beta  occ. eigenvalues --   -1.83813  -1.83785  -1.83776  -1.83767  -1.83676
  Beta  occ. eigenvalues --   -1.83668  -1.83652  -1.80581  -1.75944  -1.75710
  Beta  occ. eigenvalues --   -1.50213  -1.50209  -1.50123  -1.08595  -1.06970
  Beta  occ. eigenvalues --   -1.06930  -1.06885  -1.05997  -1.05993  -1.05969
  Beta  occ. eigenvalues --   -1.04576  -1.04568  -1.04558  -1.03952  -1.03947
  Beta  occ. eigenvalues --   -1.03627  -1.03317  -1.03284  -1.03270  -1.03055
  Beta  occ. eigenvalues --   -1.03036  -1.02236  -1.02206  -1.02198  -1.02095
  Beta  occ. eigenvalues --   -1.02026  -1.01995  -1.01909  -1.01892  -1.01798
  Beta  occ. eigenvalues --   -1.01767  -1.01745  -1.01608  -1.01578  -1.01558
  Beta  occ. eigenvalues --   -1.01312  -1.00810  -1.00771  -1.00744  -1.00737
  Beta  occ. eigenvalues --   -0.99853  -0.99792  -0.99752  -0.96464  -0.90037
  Beta  occ. eigenvalues --   -0.85659  -0.85654  -0.85578  -0.85516  -0.85501
  Beta  occ. eigenvalues --   -0.85500  -0.85472  -0.85419  -0.85411  -0.84584
  Beta  occ. eigenvalues --   -0.84375  -0.82720  -0.72217  -0.69782  -0.65379
  Beta  occ. eigenvalues --   -0.62296  -0.61687  -0.61631  -0.61604  -0.60905
  Beta  occ. eigenvalues --   -0.58969  -0.58946  -0.58939  -0.58806  -0.58756
  Beta  occ. eigenvalues --   -0.58725  -0.58703  -0.58660  -0.58543  -0.57330
  Beta  occ. eigenvalues --   -0.57166  -0.57115  -0.57027  -0.56915  -0.56490
  Beta  occ. eigenvalues --   -0.56412  -0.56366  -0.55808  -0.55596  -0.55345
  Beta  occ. eigenvalues --   -0.55335  -0.55320  -0.54621  -0.54186  -0.54161
  Beta  occ. eigenvalues --   -0.54004  -0.53625  -0.53583  -0.53542  -0.52863
  Beta  occ. eigenvalues --   -0.52660  -0.52591  -0.52470  -0.52450  -0.51482
  Beta  occ. eigenvalues --   -0.51455  -0.51450  -0.51327  -0.51270  -0.51023
  Beta  occ. eigenvalues --   -0.50554  -0.50471  -0.50462  -0.50338  -0.50244
  Beta  occ. eigenvalues --   -0.50179  -0.50064  -0.50053  -0.50004  -0.49732
  Beta  occ. eigenvalues --   -0.49664  -0.49625  -0.49502  -0.49482  -0.49303
  Beta  occ. eigenvalues --   -0.49238  -0.49197  -0.49059  -0.49017  -0.48940
  Beta  occ. eigenvalues --   -0.48723  -0.48559  -0.48536  -0.48476  -0.47930
  Beta  occ. eigenvalues --   -0.47694  -0.47653  -0.46060  -0.45907  -0.45876
  Beta  occ. eigenvalues --   -0.45809  -0.45679  -0.45577  -0.45223  -0.45165
  Beta  occ. eigenvalues --   -0.45144  -0.45058  -0.44869  -0.44686  -0.44493
  Beta  occ. eigenvalues --   -0.44479  -0.44430  -0.44280  -0.44237  -0.44217
  Beta  occ. eigenvalues --   -0.43410  -0.43296  -0.42524  -0.42485  -0.42441
  Beta  occ. eigenvalues --   -0.42273  -0.42243  -0.42135  -0.42121  -0.41651
  Beta  occ. eigenvalues --   -0.41614  -0.41560  -0.41459  -0.41048  -0.40967
  Beta  occ. eigenvalues --   -0.40773  -0.40740  -0.40714  -0.40429  -0.40421
  Beta  occ. eigenvalues --   -0.40381  -0.40189  -0.40178  -0.40161  -0.39832
  Beta  occ. eigenvalues --   -0.39668  -0.39358  -0.39190  -0.39133  -0.39131
  Beta  occ. eigenvalues --   -0.38946  -0.38916  -0.38859  -0.38744  -0.38714
  Beta  occ. eigenvalues --   -0.38676  -0.38338  -0.38314  -0.38282  -0.37679
  Beta  occ. eigenvalues --   -0.37216  -0.37193  -0.35615  -0.35579  -0.33992
  Beta  occ. eigenvalues --   -0.30883
  Beta virt. eigenvalues --   -0.06183  -0.06139  -0.04722  -0.04678  -0.04577
  Beta virt. eigenvalues --   -0.01522  -0.01391  -0.01332  -0.01079  -0.00911
  Beta virt. eigenvalues --   -0.00875  -0.00838  -0.00149  -0.00074  -0.00042

 Mulliken charges and spin densities:
               1          2
     1  Cl  -0.353546  -0.603861
     2  C   -0.036211  -0.098090
     3  C    0.010623   0.060193
     4  C   -0.035303  -0.093720
     5  C   -0.032420   0.059452
     6  C    0.009027  -0.117292
     7  C   -0.046811   0.059966
     8  H    0.049425   0.004218
     9  H    0.051245   0.004011
    10  H    0.056493  -0.002110
    11  H    0.057759   0.005145
    12  H    0.054361  -0.002101
    13  C    0.005165  -0.266294
    14  C   -0.037190  -0.019007
    15  H    0.075738   0.010931
    16  H    0.095091   0.000937
    17  H    0.090582  -0.000988
    18  O   -0.670146  -0.000557
    19  O   -0.668404  -0.000510
    20  O   -0.665340  -0.001417
    21  O   -0.670877  -0.000534
    22  W    1.712276   0.000355
    23  W    1.655137   0.000486
    24  W    1.668171   0.000166
    25  W    1.677711   0.000219
    26  W    1.658387   0.002746
    27  W    1.706458   0.002474
    28  W    1.605303   0.003330
    29  W    1.666985   0.002852
    30  O   -0.350349  -0.000527
    31  O   -0.393939  -0.000566
    32  O   -0.394804  -0.000618
    33  O   -0.386526  -0.000563
    34  O   -0.669845  -0.000307
    35  O   -0.676747  -0.000042
    36  O   -0.668171  -0.000153
    37  O   -0.670468  -0.000221
    38  O   -0.396549   0.002086
    39  O   -0.396545   0.002136
    40  O   -0.341217   0.000522
    41  O   -0.394874   0.002120
    42  O   -0.676180   0.000068
    43  O   -0.670490   0.000169
    44  O   -0.666186   0.000286
    45  O   -0.673170   0.000111
    46  O   -0.396880   0.002301
    47  O   -0.352149   0.002172
    48  O   -0.393393   0.001820
    49  O   -0.394272   0.002340
    50  W    1.654482   0.002828
    51  W    1.659464   0.002734
    52  W    1.675250   0.003819
    53  W    1.665916   0.002677
    54  O   -0.720702   0.000090
    55  O   -0.703383   0.000000
    56  O   -0.720644   0.000127
    57  O   -0.719334   0.000061
    58  O   -0.700900   0.000082
    59  O   -0.721578   0.000161
    60  O   -0.720552   0.000214
    61  O   -0.715894   0.000203
    62  O   -0.721221  -0.000177
    63  O   -0.703521  -0.000056
    64  O   -0.723107  -0.000188
    65  O   -0.722850  -0.000199
    66  O   -0.882964   0.005238
    67  O   -0.882965   0.007308
    68  O   -0.880477   0.007288
    69  O   -0.887507   0.006622
    70  K    0.851837   0.000195
    71  K    0.848549   0.000224
    72  K    0.848415   0.000221
    73  V    1.196747   0.936393
 Sum of Mulliken charges =  -1.00000  -0.00000

 Dipole moment (field-independent basis, Debye):
    X=             27.8101    Y=            -13.8563    Z=            -30.8961  Tot=             43.8174
 Quadrupole moment (field-independent basis, Debye-Ang):
   XX=           -757.1082   YY=           -710.7549   ZZ=           -786.1323
   XY=            127.4272   XZ=            172.7417   YZ=            -94.7704

 Normal termination of Gaussian 16 at Mon Jun  3 06:53:02 2024.
