 Gaussian 16, Revision C.01,
 Gaussian 16:  ES64L-G16RevC.01  3-Jul-2019

 ----------------------------------------------------------------------
 # def2svp wb97xd scrf=(smd,solvent=acetonitrile) g09default scf=(xqc,m
 axcycle=64) force guess=read nosymm
 ----------------------------------------------------------------------

 ----------
 Title Card
 ----------
 Symbolic Z-matrix:
 Charge = -1 Multiplicity = 1

                          Input orientation:
 ---------------------------------------------------------------------
 Center     Atomic      Atomic             Coordinates (Angstroms)
 Number     Number       Type             X           Y           Z
 ---------------------------------------------------------------------
      1         17           0       -9.706063    8.281402   10.539828
      2          6           0       -8.398450    4.299176   12.197183
      3          6           0       -9.210429    3.976585   11.093380
      4          6           0      -10.112472    2.904360   11.226927
      5          6           0      -10.209778    2.192758   12.419397
      6          6           0       -9.396204    2.526003   13.503310
      7          6           0       -8.489578    3.581801   13.385095
      8          1           0       -7.688545    5.126067   12.129867
      9          1           0      -10.754145    2.638224   10.382066
     10          1           0      -10.927982    1.373760   12.506554
     11          1           0       -9.458514    1.958713   14.434366
     12          1           0       -7.853332    3.855951   14.230189
     13          6           0       -9.169734    4.734973    9.841052
     14          6           0       -8.443421    5.850988    9.621740
     15          1           0       -9.814164    4.357718    9.038764
     16          1           0       -8.468173    6.358649    8.657220
     17          1           0       -7.745020    6.247393   10.359513
     18          8           0       -0.973601   -1.828093    7.450852
     19          8           0       -8.371721   -1.319262    7.459143
     20          8           0       -7.004937    1.328137   10.493203
     21          8           0       -2.324280   -4.399334   10.555831
     22         74           0       -3.370374    0.717105    6.512697
     23         74           0       -5.998158   -3.849879    6.579283
     24         74           0       -3.575476    0.881914   11.391474
     25         74           0       -5.770898   -3.899388   11.462550
     26         74           0       -2.451022   -2.586883    6.369040
     27         74           0       -6.895799   -0.547829    6.344176
     28         74           0       -6.774119   -0.271374   11.597415
     29         74           0       -2.558457   -2.744917   11.627440
     30          8           0       -3.123638    1.916032    5.350847
     31          8           0       -6.143685   -5.099860    5.438082
     32          8           0       -2.649328    1.725508   12.539713
     33          8           0       -6.680786   -4.716707   12.639824
     34          8           0       -2.657844   -0.906220    5.587135
     35          8           0       -6.687051   -2.282472    5.622188
     36          8           0       -5.267094    0.537178   12.363537
     37          8           0       -4.055840   -3.550956   12.407886
     38          8           0        0.350489   -0.088304    9.266192
     39          8           0       -9.698544   -2.997463    9.317665
     40          8           0       -6.381122    3.408138    8.682199
     41          8           0       -2.970482   -6.494165    8.746318
     42          8           0       -1.752280    0.729259    7.487541
     43          8           0       -7.600671   -3.880245    7.552667
     44          8           0       -4.477541    2.192631   10.422944
     45          8           0       -4.861919   -5.244724   10.514698
     46          8           0       -1.626922   -3.520055    5.211501
     47          8           0       -7.768906    0.256222    5.143904
     48          8           0       -7.986165   -0.168611   12.782008
     49          8           0       -1.329208   -2.873592   12.793585
     50         74           0       -1.215959   -0.589893    8.837513
     51         74           0       -8.132804   -2.506380    8.874987
     52         74           0       -5.891363    1.838646    9.052569
     53         74           0       -3.460861   -4.919995    9.158211
     54          8           0       -4.220585   -3.124898    6.064286
     55          8           0       -5.123785   -0.052705    6.017711
     56          8           0       -6.161311   -2.025273   11.924893
     57          8           0       -3.152039   -0.994300   11.920510
     58          8           0       -4.339230    1.581491    7.851717
     59          8           0       -5.000672   -4.705201    7.920327
     60          8           0       -2.285839    0.550304   10.073578
     61          8           0       -7.053956   -3.623068   10.131985
     62          8           0       -2.568161   -3.916295    7.851452
     63          8           0       -6.794667    0.783365    7.800663
     64          8           0       -7.807286   -1.178778   10.159527
     65          8           0       -1.537554   -1.894756   10.149594
     66          8           0       -3.343147   -1.168463    8.013561
     67          8           0       -6.002757   -1.968894    8.036144
     68          8           0       -5.094610   -0.220147    9.946638
     69          8           0       -4.231465   -2.857016    9.975242
     70         19           0       -3.225569   -6.151115    5.648413
     71         19           0       -0.123735   -0.030828   12.320872
     72         19           0       -9.298002   -2.821084   12.395314
     73         23           0       -4.670039   -1.549437    8.990185
 ---------------------------------------------------------------------

 SCF Done:  E(RwB97XD) =  -7327.70229778     A.U. after   12 cycles

 Alpha  occ. eigenvalues -- -197.29325-130.00128-130.00043-130.00014-101.48303
 Alpha  occ. eigenvalues --  -22.62463 -19.33620 -19.33612 -19.33607 -19.33584
 Alpha  occ. eigenvalues --  -19.30730 -19.30691 -19.30689 -19.30682 -19.30666
 Alpha  occ. eigenvalues --  -19.30659 -19.30653 -19.30638 -19.30587 -19.30368
 Alpha  occ. eigenvalues --  -19.30342 -19.30175 -19.29379 -19.29362 -19.29360
 Alpha  occ. eigenvalues --  -19.29344 -19.29337 -19.29318 -19.29308 -19.29285
 Alpha  occ. eigenvalues --  -19.29243 -19.29228 -19.29215 -19.29208 -19.29193
 Alpha  occ. eigenvalues --  -19.29161 -19.29131 -19.29124 -19.29119 -19.29118
 Alpha  occ. eigenvalues --  -19.29110 -19.29094 -19.29046 -19.29005 -19.28981
 Alpha  occ. eigenvalues --  -19.28904 -19.11418 -19.11410 -19.11401 -13.37530
 Alpha  occ. eigenvalues --  -13.37436 -13.37411 -10.70459 -10.70452 -10.70452
 Alpha  occ. eigenvalues --  -10.70367 -10.70360 -10.70355 -10.70341 -10.70334
 Alpha  occ. eigenvalues --  -10.70333 -10.29882 -10.29321 -10.29307 -10.29047
 Alpha  occ. eigenvalues --  -10.28996 -10.28917 -10.28221 -10.27476  -9.38774
 Alpha  occ. eigenvalues --   -7.13604  -7.13548  -7.13545  -3.23297  -3.23287
 Alpha  occ. eigenvalues --   -3.23282  -3.23281  -3.23264  -3.23235  -3.23232
 Alpha  occ. eigenvalues --   -3.23228  -3.23215  -3.22948  -3.22935  -3.22761
 Alpha  occ. eigenvalues --   -2.91745  -1.94135  -1.94105  -1.94096  -1.87707
 Alpha  occ. eigenvalues --   -1.87653  -1.87644  -1.87609  -1.87481  -1.87461
 Alpha  occ. eigenvalues --   -1.87453  -1.87442  -1.87418  -1.87264  -1.87234
 Alpha  occ. eigenvalues --   -1.87088  -1.86623  -1.86503  -1.86494  -1.86479
 Alpha  occ. eigenvalues --   -1.86446  -1.86425  -1.86339  -1.86309  -1.86299
 Alpha  occ. eigenvalues --   -1.86289  -1.86268  -1.86257  -1.86139  -1.86125
 Alpha  occ. eigenvalues --   -1.86112  -1.86098  -1.86031  -1.86013  -1.85984
 Alpha  occ. eigenvalues --   -1.85910  -1.85887  -1.85791  -1.85713  -1.85657
 Alpha  occ. eigenvalues --   -1.51218  -1.51128  -1.51109  -1.13020  -1.11245
 Alpha  occ. eigenvalues --   -1.11161  -1.11158  -1.08969  -1.08532  -1.08500
 Alpha  occ. eigenvalues --   -1.08310  -1.07556  -1.07487  -1.07481  -1.06898
 Alpha  occ. eigenvalues --   -1.06886  -1.06868  -1.06292  -1.06269  -1.05361
 Alpha  occ. eigenvalues --   -1.05354  -1.04976  -1.04971  -1.04954  -1.04235
 Alpha  occ. eigenvalues --   -1.04228  -1.04191  -1.04046  -1.04014  -1.03995
 Alpha  occ. eigenvalues --   -1.03938  -1.03922  -1.03893  -1.03764  -1.03751
 Alpha  occ. eigenvalues --   -1.03617  -1.03572  -1.03307  -1.03272  -1.03162
 Alpha  occ. eigenvalues --   -1.03143  -1.03081  -1.02994  -0.94369  -0.86683
 Alpha  occ. eigenvalues --   -0.86602  -0.86587  -0.86519  -0.86493  -0.86492
 Alpha  occ. eigenvalues --   -0.86419  -0.86392  -0.86384  -0.86383  -0.82809
 Alpha  occ. eigenvalues --   -0.79738  -0.71530  -0.69663  -0.68008  -0.64582
 Alpha  occ. eigenvalues --   -0.63952  -0.63887  -0.63867  -0.63275  -0.63258
 Alpha  occ. eigenvalues --   -0.63148  -0.62962  -0.62663  -0.62599  -0.61938
 Alpha  occ. eigenvalues --   -0.61599  -0.61579  -0.61481  -0.61228  -0.61208
 Alpha  occ. eigenvalues --   -0.61167  -0.60420  -0.59464  -0.59440  -0.59422
 Alpha  occ. eigenvalues --   -0.59376  -0.59346  -0.58679  -0.58008  -0.57975
 Alpha  occ. eigenvalues --   -0.57894  -0.57056  -0.57034  -0.56999  -0.56265
 Alpha  occ. eigenvalues --   -0.56242  -0.56096  -0.55709  -0.54870  -0.54807
 Alpha  occ. eigenvalues --   -0.54767  -0.54526  -0.54237  -0.54116  -0.54101
 Alpha  occ. eigenvalues --   -0.54031  -0.53963  -0.53269  -0.53231  -0.53095
 Alpha  occ. eigenvalues --   -0.53053  -0.52913  -0.52741  -0.52709  -0.52657
 Alpha  occ. eigenvalues --   -0.52623  -0.52515  -0.52460  -0.52414  -0.51625
 Alpha  occ. eigenvalues --   -0.51606  -0.51382  -0.51344  -0.51319  -0.51260
 Alpha  occ. eigenvalues --   -0.51191  -0.51168  -0.50983  -0.50803  -0.50625
 Alpha  occ. eigenvalues --   -0.50599  -0.50598  -0.49960  -0.49942  -0.49296
 Alpha  occ. eigenvalues --   -0.49263  -0.49238  -0.49217  -0.49163  -0.49089
 Alpha  occ. eigenvalues --   -0.48906  -0.48082  -0.48037  -0.47923  -0.47639
 Alpha  occ. eigenvalues --   -0.47398  -0.47295  -0.47250  -0.47043  -0.46978
 Alpha  occ. eigenvalues --   -0.46921  -0.46633  -0.46628  -0.46464  -0.46216
 Alpha  occ. eigenvalues --   -0.46163  -0.46123  -0.45670  -0.45110  -0.44935
 Alpha  occ. eigenvalues --   -0.44901  -0.44202  -0.44159  -0.44041  -0.43544
 Alpha  occ. eigenvalues --   -0.43325  -0.43284  -0.43146  -0.43140  -0.43101
 Alpha  occ. eigenvalues --   -0.42776  -0.42751  -0.42715  -0.42626  -0.42610
 Alpha  occ. eigenvalues --   -0.42541  -0.42503  -0.42490  -0.42316  -0.42308
 Alpha  occ. eigenvalues --   -0.42281  -0.42061  -0.41923  -0.41883  -0.41871
 Alpha  occ. eigenvalues --   -0.41269  -0.41248  -0.41193  -0.41112  -0.40600
 Alpha  occ. eigenvalues --   -0.40587  -0.40576  -0.40344  -0.39457  -0.39446
 Alpha  occ. eigenvalues --   -0.37077  -0.32570  -0.29228  -0.25082  -0.25054
 Alpha  occ. eigenvalues --   -0.23444
 Alpha virt. eigenvalues --   -0.09370  -0.09168  -0.08304  -0.08259  -0.06871
 Alpha virt. eigenvalues --   -0.06844  -0.06751  -0.04383  -0.04101  -0.04047
 Alpha virt. eigenvalues --   -0.03726  -0.03501  -0.03439  -0.03221  -0.03067

 Mulliken charges:
               1
     1  Cl  -0.897653
     2  C   -0.082207
     3  C    0.047294
     4  C   -0.081502
     5  C   -0.034669
     6  C   -0.033011
     7  C   -0.048447
     8  H    0.028663
     9  H    0.029431
    10  H    0.041312
    11  H    0.037361
    12  H    0.039459
    13  C   -0.128035
    14  C    0.036008
    15  H    0.019272
    16  H    0.035644
    17  H    0.028816
    18  O   -0.661017
    19  O   -0.659377
    20  O   -0.654620
    21  O   -0.661678
    22  W    1.728855
    23  W    1.669185
    24  W    1.680601
    25  W    1.691684
    26  W    1.671867
    27  W    1.724189
    28  W    1.613326
    29  W    1.680853
    30  O   -0.320260
    31  O   -0.365530
    32  O   -0.366119
    33  O   -0.357468
    34  O   -0.661331
    35  O   -0.669311
    36  O   -0.659097
    37  O   -0.661397
    38  O   -0.366648
    39  O   -0.366387
    40  O   -0.298937
    41  O   -0.364817
    42  O   -0.668550
    43  O   -0.661726
    44  O   -0.657415
    45  O   -0.664821
    46  O   -0.367024
    47  O   -0.320441
    48  O   -0.359908
    49  O   -0.364199
    50  W    1.668200
    51  W    1.673364
    52  W    1.682032
    53  W    1.680249
    54  O   -0.722439
    55  O   -0.704959
    56  O   -0.723592
    57  O   -0.721139
    58  O   -0.702926
    59  O   -0.724072
    60  O   -0.722690
    61  O   -0.717955
    62  O   -0.722657
    63  O   -0.704760
    64  O   -0.723809
    65  O   -0.724584
    66  O   -0.800667
    67  O   -0.799836
    68  O   -0.797423
    69  O   -0.807631
    70  K    0.865576
    71  K    0.862548
    72  K    0.862357
    73  V    1.186594
 Sum of Mulliken charges =  -1.00000

 Dipole moment (field-independent basis, Debye):
    X=             50.2399    Y=            -51.4844    Z=            -39.0151  Tot=             81.8345
 Quadrupole moment (field-independent basis, Debye-Ang):
   XX=          -1044.0980   YY=           -888.7563   ZZ=           -921.4174
   XY=            449.9146   XZ=            451.1928   YZ=           -480.4849

 Normal termination of Gaussian 16 at Mon Jun  3 07:38:59 2024.
