 Gaussian 16, Revision C.01,
 Gaussian 16:  ES64L-G16RevC.01  3-Jul-2019

 ----------------------------------------------------------------------
 # def2svp wb97xd scrf=(smd,solvent=acetonitrile) g09default scf=(xqc,m
 axcycle=64) force guess=read nosymm
 ----------------------------------------------------------------------

 ----------
 Title Card
 ----------
 Symbolic Z-matrix:
 Charge = -1 Multiplicity = 1

                          Input orientation:
 ---------------------------------------------------------------------
 Center     Atomic      Atomic             Coordinates (Angstroms)
 Number     Number       Type             X           Y           Z
 ---------------------------------------------------------------------
      1         17           0       -9.706063    8.281402   10.539828
      2          6           0       -8.398450    4.299176   12.197183
      3          6           0       -9.210429    3.976585   11.093380
      4          6           0      -10.112472    2.904360   11.226927
      5          6           0      -10.209778    2.192758   12.419397
      6          6           0       -9.396204    2.526003   13.503310
      7          6           0       -8.489578    3.581801   13.385095
      8          1           0       -7.688545    5.126067   12.129867
      9          1           0      -10.754145    2.638224   10.382066
     10          1           0      -10.927982    1.373760   12.506554
     11          1           0       -9.458514    1.958713   14.434366
     12          1           0       -7.853332    3.855951   14.230189
     13          6           0       -9.169734    4.734973    9.841052
     14          6           0       -8.443421    5.850988    9.621740
     15          1           0       -9.814164    4.357718    9.038764
     16          1           0       -8.468173    6.358649    8.657220
     17          1           0       -7.745020    6.247393   10.359513
     18          8           0       -0.973601   -1.828093    7.450852
     19          8           0       -8.371721   -1.319262    7.459143
     20          8           0       -7.004937    1.328137   10.493203
     21          8           0       -2.324280   -4.399334   10.555831
     22         74           0       -3.370374    0.717105    6.512697
     23         74           0       -5.998158   -3.849879    6.579283
     24         74           0       -3.575476    0.881914   11.391474
     25         74           0       -5.770898   -3.899388   11.462550
     26         74           0       -2.451022   -2.586883    6.369040
     27         74           0       -6.895799   -0.547829    6.344176
     28         74           0       -6.774119   -0.271374   11.597415
     29         74           0       -2.558457   -2.744917   11.627440
     30          8           0       -3.123638    1.916032    5.350847
     31          8           0       -6.143685   -5.099860    5.438082
     32          8           0       -2.649328    1.725508   12.539713
     33          8           0       -6.680786   -4.716707   12.639824
     34          8           0       -2.657844   -0.906220    5.587135
     35          8           0       -6.687051   -2.282472    5.622188
     36          8           0       -5.267094    0.537178   12.363537
     37          8           0       -4.055840   -3.550956   12.407886
     38          8           0        0.350489   -0.088304    9.266192
     39          8           0       -9.698544   -2.997463    9.317665
     40          8           0       -6.381122    3.408138    8.682199
     41          8           0       -2.970482   -6.494165    8.746318
     42          8           0       -1.752280    0.729259    7.487541
     43          8           0       -7.600671   -3.880245    7.552667
     44          8           0       -4.477541    2.192631   10.422944
     45          8           0       -4.861919   -5.244724   10.514698
     46          8           0       -1.626922   -3.520055    5.211501
     47          8           0       -7.768906    0.256222    5.143904
     48          8           0       -7.986165   -0.168611   12.782008
     49          8           0       -1.329208   -2.873592   12.793585
     50         74           0       -1.215959   -0.589893    8.837513
     51         74           0       -8.132804   -2.506380    8.874987
     52         74           0       -5.891363    1.838646    9.052569
     53         74           0       -3.460861   -4.919995    9.158211
     54          8           0       -4.220585   -3.124898    6.064286
     55          8           0       -5.123785   -0.052705    6.017711
     56          8           0       -6.161311   -2.025273   11.924893
     57          8           0       -3.152039   -0.994300   11.920510
     58          8           0       -4.339230    1.581491    7.851717
     59          8           0       -5.000672   -4.705201    7.920327
     60          8           0       -2.285839    0.550304   10.073578
     61          8           0       -7.053956   -3.623068   10.131985
     62          8           0       -2.568161   -3.916295    7.851452
     63          8           0       -6.794667    0.783365    7.800663
     64          8           0       -7.807286   -1.178778   10.159527
     65          8           0       -1.537554   -1.894756   10.149594
     66          8           0       -3.343147   -1.168463    8.013561
     67          8           0       -6.002757   -1.968894    8.036144
     68          8           0       -5.094610   -0.220147    9.946638
     69          8           0       -4.231465   -2.857016    9.975242
     70         19           0       -3.225569   -6.151115    5.648413
     71         19           0       -0.123735   -0.030828   12.320872
     72         19           0       -9.298002   -2.821084   12.395314
     73         23           0       -4.670039   -1.549437    8.990185
 ---------------------------------------------------------------------

 SCF Done:  E(UwB97XD) =  -7327.70227276     A.U. after   33 cycles

 Alpha  occ. eigenvalues --  -19.24660 -18.94009 -18.92928 -18.92877 -13.36512
 Alpha  occ. eigenvalues --  -13.36505 -13.36414 -10.69439 -10.69435 -10.69434
 Alpha  occ. eigenvalues --  -10.69434 -10.69430 -10.69425 -10.69341 -10.69337
 Alpha  occ. eigenvalues --  -10.69336 -10.33090 -10.32329 -10.32036 -10.31048
 Alpha  occ. eigenvalues --  -10.31024 -10.31019 -10.30582 -10.30554  -9.52486
 Alpha  occ. eigenvalues --   -7.27371  -7.27028  -7.27025  -3.21083  -3.21069
 Alpha  occ. eigenvalues --   -3.21051  -3.21013  -3.21010  -3.20999  -3.20988
 Alpha  occ. eigenvalues --   -3.20981  -3.20972  -3.20841  -3.20830  -3.20804
 Alpha  occ. eigenvalues --   -2.78752  -1.85328  -1.85277  -1.85268  -1.85230
 Alpha  occ. eigenvalues --   -1.85129  -1.85068  -1.85053  -1.85026  -1.85013
 Alpha  occ. eigenvalues --   -1.85003  -1.84984  -1.84933  -1.84383  -1.84269
 Alpha  occ. eigenvalues --   -1.84262  -1.84242  -1.84205  -1.84195  -1.84140
 Alpha  occ. eigenvalues --   -1.84115  -1.84092  -1.84081  -1.84051  -1.84044
 Alpha  occ. eigenvalues --   -1.83939  -1.83903  -1.83876  -1.83871  -1.83849
 Alpha  occ. eigenvalues --   -1.83814  -1.83785  -1.83777  -1.83768  -1.83677
 Alpha  occ. eigenvalues --   -1.83669  -1.83652  -1.81920  -1.81586  -1.81560
 Alpha  occ. eigenvalues --   -1.50214  -1.50211  -1.50126  -1.08611  -1.06989
 Alpha  occ. eigenvalues --   -1.06949  -1.06910  -1.05998  -1.05992  -1.05969
 Alpha  occ. eigenvalues --   -1.04574  -1.04565  -1.04557  -1.03948  -1.03943
 Alpha  occ. eigenvalues --   -1.03693  -1.03347  -1.03320  -1.03298  -1.03057
 Alpha  occ. eigenvalues --   -1.03044  -1.02252  -1.02225  -1.02219  -1.02100
 Alpha  occ. eigenvalues --   -1.02031  -1.02006  -1.01914  -1.01904  -1.01802
 Alpha  occ. eigenvalues --   -1.01768  -1.01748  -1.01612  -1.01582  -1.01571
 Alpha  occ. eigenvalues --   -1.01310  -1.00824  -1.00797  -1.00746  -1.00741
 Alpha  occ. eigenvalues --   -0.99990  -0.99932  -0.99874  -0.96230  -0.89355
 Alpha  occ. eigenvalues --   -0.85661  -0.85655  -0.85580  -0.85519  -0.85502
 Alpha  occ. eigenvalues --   -0.85501  -0.85474  -0.85421  -0.85413  -0.84307
 Alpha  occ. eigenvalues --   -0.82494  -0.80979  -0.71953  -0.69661  -0.65128
 Alpha  occ. eigenvalues --   -0.62293  -0.61684  -0.61628  -0.61601  -0.60699
 Alpha  occ. eigenvalues --   -0.58973  -0.58946  -0.58938  -0.58896  -0.58823
 Alpha  occ. eigenvalues --   -0.58740  -0.58713  -0.58676  -0.58541  -0.57353
 Alpha  occ. eigenvalues --   -0.57318  -0.57283  -0.56998  -0.56804  -0.56487
 Alpha  occ. eigenvalues --   -0.56441  -0.56400  -0.56004  -0.55852  -0.55365
 Alpha  occ. eigenvalues --   -0.55356  -0.55318  -0.54427  -0.54197  -0.54171
 Alpha  occ. eigenvalues --   -0.54019  -0.53653  -0.53597  -0.53584  -0.52795
 Alpha  occ. eigenvalues --   -0.52658  -0.52602  -0.52488  -0.52455  -0.51494
 Alpha  occ. eigenvalues --   -0.51480  -0.51470  -0.51388  -0.51328  -0.50822
 Alpha  occ. eigenvalues --   -0.50563  -0.50536  -0.50484  -0.50396  -0.50340
 Alpha  occ. eigenvalues --   -0.50283  -0.50098  -0.50054  -0.50035  -0.49784
 Alpha  occ. eigenvalues --   -0.49685  -0.49656  -0.49511  -0.49490  -0.49304
 Alpha  occ. eigenvalues --   -0.49260  -0.49198  -0.49091  -0.49032  -0.48961
 Alpha  occ. eigenvalues --   -0.48731  -0.48558  -0.48538  -0.48484  -0.47738
 Alpha  occ. eigenvalues --   -0.47714  -0.47246  -0.46488  -0.46051  -0.46033
 Alpha  occ. eigenvalues --   -0.45884  -0.45872  -0.45762  -0.45635  -0.45223
 Alpha  occ. eigenvalues --   -0.45144  -0.45136  -0.44873  -0.44691  -0.44522
 Alpha  occ. eigenvalues --   -0.44490  -0.44465  -0.44284  -0.44276  -0.44259
 Alpha  occ. eigenvalues --   -0.43414  -0.43187  -0.42572  -0.42543  -0.42477
 Alpha  occ. eigenvalues --   -0.42314  -0.42183  -0.42166  -0.42159  -0.41638
 Alpha  occ. eigenvalues --   -0.41622  -0.41579  -0.41044  -0.41001  -0.40803
 Alpha  occ. eigenvalues --   -0.40784  -0.40776  -0.40446  -0.40435  -0.40400
 Alpha  occ. eigenvalues --   -0.40236  -0.40208  -0.40190  -0.40148  -0.39889
 Alpha  occ. eigenvalues --   -0.39361  -0.39286  -0.39266  -0.39176  -0.39056
 Alpha  occ. eigenvalues --   -0.38981  -0.38947  -0.38859  -0.38765  -0.38724
 Alpha  occ. eigenvalues --   -0.38346  -0.38323  -0.38290  -0.38169  -0.37215
 Alpha  occ. eigenvalues --   -0.37196  -0.34693  -0.34662  -0.33702  -0.30503
 Alpha  occ. eigenvalues --   -0.25710
 Alpha virt. eigenvalues --   -0.11963  -0.06173  -0.06127  -0.04715  -0.04670
 Alpha virt. eigenvalues --   -0.04566  -0.01525  -0.01392  -0.01333  -0.01082
 Alpha virt. eigenvalues --   -0.00913  -0.00878  -0.00840  -0.00156  -0.00083

  Beta  occ. eigenvalues -- -197.10741-129.99107-129.99104-129.99011-101.62481
  Beta  occ. eigenvalues --  -22.43172 -19.28512 -19.28511 -19.28452 -19.28439
  Beta  occ. eigenvalues --  -19.28385 -19.28376 -19.28363 -19.28351 -19.28326
  Beta  occ. eigenvalues --  -19.28271 -19.28230 -19.28155 -19.26987 -19.26963
  Beta  occ. eigenvalues --  -19.26950 -19.26924 -19.26920 -19.26911 -19.26872
  Beta  occ. eigenvalues --  -19.26872 -19.26870 -19.26860 -19.26855 -19.26848
  Beta  occ. eigenvalues --  -19.26846 -19.26842 -19.26832 -19.26814 -19.26813
  Beta  occ. eigenvalues --  -19.26803 -19.26797 -19.26786 -19.26780 -19.26733
  Beta  occ. eigenvalues --  -19.26688 -19.26654 -19.24721 -19.24684 -19.24653
  Beta  occ. eigenvalues --  -19.24635 -18.93663 -18.91491 -18.91390 -13.36512
  Beta  occ. eigenvalues --  -13.36505 -13.36414 -10.69439 -10.69435 -10.69434
  Beta  occ. eigenvalues --  -10.69434 -10.69430 -10.69425 -10.69341 -10.69337
  Beta  occ. eigenvalues --  -10.69336 -10.33376 -10.32445 -10.31982 -10.31150
  Beta  occ. eigenvalues --  -10.31146 -10.31127 -10.30523 -10.30494  -9.52935
  Beta  occ. eigenvalues --   -7.28779  -7.27335  -7.27332  -3.21078  -3.21068
  Beta  occ. eigenvalues --   -3.21051  -3.21009  -3.21007  -3.20992  -3.20982
  Beta  occ. eigenvalues --   -3.20975  -3.20965  -3.20840  -3.20825  -3.20799
  Beta  occ. eigenvalues --   -2.74692  -1.85322  -1.85273  -1.85263  -1.85221
  Beta  occ. eigenvalues --   -1.85124  -1.85062  -1.85048  -1.85019  -1.85005
  Beta  occ. eigenvalues --   -1.84994  -1.84978  -1.84925  -1.84380  -1.84267
  Beta  occ. eigenvalues --   -1.84258  -1.84239  -1.84202  -1.84191  -1.84137
  Beta  occ. eigenvalues --   -1.84112  -1.84089  -1.84078  -1.84048  -1.84041
  Beta  occ. eigenvalues --   -1.83937  -1.83900  -1.83874  -1.83868  -1.83846
  Beta  occ. eigenvalues --   -1.83811  -1.83782  -1.83774  -1.83765  -1.83674
  Beta  occ. eigenvalues --   -1.83666  -1.83649  -1.80582  -1.75937  -1.75717
  Beta  occ. eigenvalues --   -1.50214  -1.50211  -1.50126  -1.08594  -1.06968
  Beta  occ. eigenvalues --   -1.06929  -1.06884  -1.05995  -1.05991  -1.05967
  Beta  occ. eigenvalues --   -1.04575  -1.04566  -1.04556  -1.03949  -1.03943
  Beta  occ. eigenvalues --   -1.03626  -1.03314  -1.03282  -1.03268  -1.03056
  Beta  occ. eigenvalues --   -1.03036  -1.02234  -1.02205  -1.02197  -1.02093
  Beta  occ. eigenvalues --   -1.02027  -1.01993  -1.01910  -1.01890  -1.01797
  Beta  occ. eigenvalues --   -1.01766  -1.01743  -1.01606  -1.01579  -1.01556
  Beta  occ. eigenvalues --   -1.01310  -1.00812  -1.00770  -1.00745  -1.00737
  Beta  occ. eigenvalues --   -0.99853  -0.99792  -0.99751  -0.96461  -0.90034
  Beta  occ. eigenvalues --   -0.85661  -0.85655  -0.85580  -0.85519  -0.85502
  Beta  occ. eigenvalues --   -0.85501  -0.85474  -0.85421  -0.85413  -0.84592
  Beta  occ. eigenvalues --   -0.84375  -0.82722  -0.72212  -0.69783  -0.65377
  Beta  occ. eigenvalues --   -0.62293  -0.61683  -0.61627  -0.61600  -0.60905
  Beta  occ. eigenvalues --   -0.58968  -0.58944  -0.58937  -0.58806  -0.58754
  Beta  occ. eigenvalues --   -0.58722  -0.58700  -0.58657  -0.58541  -0.57330
  Beta  occ. eigenvalues --   -0.57164  -0.57115  -0.57023  -0.56913  -0.56488
  Beta  occ. eigenvalues --   -0.56410  -0.56365  -0.55807  -0.55595  -0.55344
  Beta  occ. eigenvalues --   -0.55336  -0.55320  -0.54619  -0.54187  -0.54162
  Beta  occ. eigenvalues --   -0.54005  -0.53621  -0.53579  -0.53538  -0.52863
  Beta  occ. eigenvalues --   -0.52659  -0.52589  -0.52468  -0.52450  -0.51481
  Beta  occ. eigenvalues --   -0.51454  -0.51450  -0.51327  -0.51270  -0.51020
  Beta  occ. eigenvalues --   -0.50550  -0.50470  -0.50461  -0.50337  -0.50243
  Beta  occ. eigenvalues --   -0.50177  -0.50065  -0.50054  -0.50004  -0.49732
  Beta  occ. eigenvalues --   -0.49664  -0.49625  -0.49501  -0.49480  -0.49303
  Beta  occ. eigenvalues --   -0.49237  -0.49197  -0.49055  -0.49012  -0.48936
  Beta  occ. eigenvalues --   -0.48722  -0.48557  -0.48534  -0.48476  -0.47931
  Beta  occ. eigenvalues --   -0.47697  -0.47657  -0.46057  -0.45905  -0.45875
  Beta  occ. eigenvalues --   -0.45808  -0.45678  -0.45576  -0.45222  -0.45164
  Beta  occ. eigenvalues --   -0.45143  -0.45057  -0.44872  -0.44689  -0.44495
  Beta  occ. eigenvalues --   -0.44480  -0.44428  -0.44279  -0.44237  -0.44217
  Beta  occ. eigenvalues --   -0.43408  -0.43291  -0.42524  -0.42486  -0.42442
  Beta  occ. eigenvalues --   -0.42269  -0.42243  -0.42134  -0.42119  -0.41654
  Beta  occ. eigenvalues --   -0.41614  -0.41560  -0.41462  -0.41047  -0.40967
  Beta  occ. eigenvalues --   -0.40773  -0.40739  -0.40714  -0.40431  -0.40423
  Beta  occ. eigenvalues --   -0.40384  -0.40189  -0.40178  -0.40160  -0.39832
  Beta  occ. eigenvalues --   -0.39669  -0.39358  -0.39190  -0.39135  -0.39133
  Beta  occ. eigenvalues --   -0.38948  -0.38919  -0.38862  -0.38744  -0.38715
  Beta  occ. eigenvalues --   -0.38676  -0.38339  -0.38315  -0.38283  -0.37693
  Beta  occ. eigenvalues --   -0.37216  -0.37192  -0.35628  -0.35593  -0.33989
  Beta  occ. eigenvalues --   -0.30886
  Beta virt. eigenvalues --   -0.06172  -0.06128  -0.04714  -0.04669  -0.04565
  Beta virt. eigenvalues --   -0.01521  -0.01387  -0.01327  -0.01076  -0.00908
  Beta virt. eigenvalues --   -0.00873  -0.00835  -0.00147  -0.00073  -0.00041

 Mulliken charges and spin densities:
               1          2
     1  Cl  -0.352840  -0.604944
     2  C   -0.036276  -0.097767
     3  C    0.010431   0.060100
     4  C   -0.035321  -0.093450
     5  C   -0.032459   0.059248
     6  C    0.008906  -0.116812
     7  C   -0.046723   0.059781
     8  H    0.049309   0.004203
     9  H    0.051211   0.003999
    10  H    0.056506  -0.002101
    11  H    0.057777   0.005125
    12  H    0.054341  -0.002095
    13  C    0.004991  -0.265618
    14  C   -0.037093  -0.019237
    15  H    0.075568   0.010912
    16  H    0.095140   0.000939
    17  H    0.090659  -0.000911
    18  O   -0.669926  -0.000556
    19  O   -0.668256  -0.000508
    20  O   -0.665263  -0.001403
    21  O   -0.670680  -0.000532
    22  W    1.712062   0.000355
    23  W    1.654769   0.000487
    24  W    1.667924   0.000167
    25  W    1.677472   0.000219
    26  W    1.658023   0.002751
    27  W    1.706228   0.002477
    28  W    1.604959   0.003329
    29  W    1.666580   0.002860
    30  O   -0.350213  -0.000527
    31  O   -0.393938  -0.000566
    32  O   -0.394750  -0.000619
    33  O   -0.386346  -0.000562
    34  O   -0.669742  -0.000310
    35  O   -0.676662  -0.000045
    36  O   -0.668038  -0.000156
    37  O   -0.670345  -0.000226
    38  O   -0.396613   0.002081
    39  O   -0.396585   0.002128
    40  O   -0.341247   0.000541
    41  O   -0.394980   0.002115
    42  O   -0.676073   0.000071
    43  O   -0.670326   0.000172
    44  O   -0.666104   0.000288
    45  O   -0.673067   0.000113
    46  O   -0.397033   0.002307
    47  O   -0.352217   0.002177
    48  O   -0.393383   0.001829
    49  O   -0.394420   0.002347
    50  W    1.654222   0.002825
    51  W    1.658984   0.002729
    52  W    1.675154   0.003799
    53  W    1.665531   0.002673
    54  O   -0.720398   0.000090
    55  O   -0.703243  -0.000000
    56  O   -0.720505   0.000126
    57  O   -0.719156   0.000060
    58  O   -0.700813   0.000082
    59  O   -0.721441   0.000161
    60  O   -0.720270   0.000214
    61  O   -0.715754   0.000204
    62  O   -0.721043  -0.000176
    63  O   -0.703417  -0.000056
    64  O   -0.722896  -0.000188
    65  O   -0.722756  -0.000200
    66  O   -0.882965   0.005231
    67  O   -0.882909   0.007313
    68  O   -0.880463   0.007286
    69  O   -0.887479   0.006629
    70  K    0.851944   0.000196
    71  K    0.848679   0.000224
    72  K    0.848522   0.000222
    73  V    1.196536   0.936381
 Sum of Mulliken charges =  -1.00000   0.00000

 Dipole moment (field-independent basis, Debye):
    X=             27.8016    Y=            -13.8502    Z=            -30.8999  Tot=             43.8128
 Quadrupole moment (field-independent basis, Debye-Ang):
   XX=           -757.0356   YY=           -710.5526   ZZ=           -786.2432
   XY=            127.4009   XZ=            172.7764   YZ=            -94.7767

 Normal termination of Gaussian 16 at Mon Jun  3 07:28:08 2024.
