 Gaussian 16, Revision C.01,
 Gaussian 16:  ES64L-G16RevC.01  3-Jul-2019

 ----------------------------------------------------------------------
 # def2svp wb97xd scrf=(smd,solvent=acetonitrile) g09default scf=(xqc,m
 axcycle=64) force guess=read nosymm
 ----------------------------------------------------------------------

 ----------
 Title Card
 ----------
 Symbolic Z-matrix:
 Charge = -1 Multiplicity = 1

                          Input orientation:
 ---------------------------------------------------------------------
 Center     Atomic      Atomic             Coordinates (Angstroms)
 Number     Number       Type             X           Y           Z
 ---------------------------------------------------------------------
      1         17           0       -9.711145    8.282568   10.540621
      2          6           0       -8.400957    4.301496   12.196923
      3          6           0       -9.214619    3.979843   11.094040
      4          6           0      -10.115321    2.906465   11.227712
      5          6           0      -10.209799    2.193094   12.419346
      6          6           0       -9.395009    2.525920   13.502522
      7          6           0       -8.489348    3.582509   13.384005
      8          1           0       -7.691679    5.128850   12.129046
      9          1           0      -10.757819    2.640123   10.383491
     10          1           0      -10.926323    1.372603   12.506471
     11          1           0       -9.455497    1.957595   14.433023
     12          1           0       -7.851294    3.855557   14.228108
     13          6           0       -9.174675    4.739147    9.842157
     14          6           0       -8.443899    5.851851    9.620765
     15          1           0       -9.822928    4.365314    9.041405
     16          1           0       -8.467455    6.358228    8.655534
     17          1           0       -7.742405    6.246016   10.356844
     18          8           0       -0.973276   -1.829000    7.450222
     19          8           0       -8.371374   -1.318760    7.458779
     20          8           0       -7.004537    1.327337   10.494075
     21          8           0       -2.323526   -4.399841   10.555987
     22         74           0       -3.369353    0.717518    6.513883
     23         74           0       -5.998731   -3.850502    6.580502
     24         74           0       -3.574227    0.882010   11.390892
     25         74           0       -5.770862   -3.900650   11.461220
     26         74           0       -2.451729   -2.587019    6.367812
     27         74           0       -6.894505   -0.548035    6.343619
     28         74           0       -6.772569   -0.272185   11.598685
     29         74           0       -2.558767   -2.745162   11.628192
     30          8           0       -3.121948    1.916807    5.352474
     31          8           0       -6.144889   -5.100707    5.439579
     32          8           0       -2.647946    1.726120   12.538508
     33          8           0       -6.680636   -4.718671   12.638137
     34          8           0       -2.657244   -0.905836    5.587163
     35          8           0       -6.686532   -2.282743    5.622427
     36          8           0       -5.265886    0.536844   12.364046
     37          8           0       -4.055826   -3.551959   12.407660
     38          8           0        0.351624   -0.091357    9.265737
     39          8           0       -9.699150   -2.994964    9.317990
     40          8           0       -6.382529    3.407280    8.683383
     41          8           0       -2.968254   -6.494009    8.746098
     42          8           0       -1.751388    0.728743    7.488415
     43          8           0       -7.601129   -3.879979    7.553221
     44          8           0       -4.477283    2.192373   10.423053
     45          8           0       -4.861259   -5.245372   10.513761
     46          8           0       -1.628260   -3.520141    5.209894
     47          8           0       -7.767136    0.256091    5.142995
     48          8           0       -7.984398   -0.169835   12.783567
     49          8           0       -1.329360   -2.874250   12.794191
     50         74           0       -1.215003   -0.591902    8.837262
     51         74           0       -8.132991   -2.504839    8.875106
     52         74           0       -5.891858    1.838010    9.053230
     53         74           0       -3.459077   -4.919983    9.158038
     54          8           0       -4.220831   -3.124928    6.064143
     55          8           0       -5.122753   -0.052677    6.017845
     56          8           0       -6.160470   -2.026157   11.924642
     57          8           0       -3.151372   -0.994574   11.921278
     58          8           0       -4.338948    1.581382    7.852330
     59          8           0       -5.000049   -4.705200    7.920445
     60          8           0       -2.285152    0.549280   10.073514
     61          8           0       -7.054107   -3.623143   10.131555
     62          8           0       -2.567458   -3.916336    7.850966
     63          8           0       -6.794206    0.782829    7.800872
     64          8           0       -7.806692   -1.178465   10.159891
     65          8           0       -1.537724   -1.895889   10.149613
     66          8           0       -3.342839   -1.168917    8.013376
     67          8           0       -6.002484   -1.968907    8.036436
     68          8           0       -5.093898   -0.220634    9.947074
     69          8           0       -4.230839   -2.857379    9.975209
     70         19           0       -3.226041   -6.151992    5.648368
     71         19           0       -0.122270   -0.034046   12.322241
     72         19           0       -9.299067   -2.821497   12.393980
     73         23           0       -4.669592   -1.549767    8.990286
 ---------------------------------------------------------------------

 SCF Done:  E(RwB97XD) =  -7327.70231271     A.U. after   12 cycles

 Alpha  occ. eigenvalues -- -197.29325-130.00130-130.00044-130.00019-101.48293
 Alpha  occ. eigenvalues --  -22.62463 -19.33621 -19.33610 -19.33609 -19.33584
 Alpha  occ. eigenvalues --  -19.30729 -19.30690 -19.30687 -19.30682 -19.30665
 Alpha  occ. eigenvalues --  -19.30659 -19.30651 -19.30635 -19.30586 -19.30366
 Alpha  occ. eigenvalues --  -19.30340 -19.30177 -19.29381 -19.29364 -19.29360
 Alpha  occ. eigenvalues --  -19.29347 -19.29339 -19.29319 -19.29309 -19.29284
 Alpha  occ. eigenvalues --  -19.29243 -19.29232 -19.29216 -19.29209 -19.29195
 Alpha  occ. eigenvalues --  -19.29162 -19.29132 -19.29122 -19.29121 -19.29119
 Alpha  occ. eigenvalues --  -19.29110 -19.29094 -19.29046 -19.29005 -19.28980
 Alpha  occ. eigenvalues --  -19.28905 -19.11418 -19.11410 -19.11401 -13.37532
 Alpha  occ. eigenvalues --  -13.37437 -13.37415 -10.70461 -10.70454 -10.70454
 Alpha  occ. eigenvalues --  -10.70368 -10.70361 -10.70356 -10.70346 -10.70339
 Alpha  occ. eigenvalues --  -10.70338 -10.29887 -10.29323 -10.29310 -10.29050
 Alpha  occ. eigenvalues --  -10.29002 -10.28919 -10.28232 -10.27483  -9.38762
 Alpha  occ. eigenvalues --   -7.13593  -7.13537  -7.13534  -3.23295  -3.23283
 Alpha  occ. eigenvalues --   -3.23280  -3.23279  -3.23261  -3.23233  -3.23231
 Alpha  occ. eigenvalues --   -3.23226  -3.23214  -3.22946  -3.22933  -3.22761
 Alpha  occ. eigenvalues --   -2.91745  -1.94135  -1.94106  -1.94096  -1.87705
 Alpha  occ. eigenvalues --   -1.87651  -1.87642  -1.87608  -1.87480  -1.87459
 Alpha  occ. eigenvalues --   -1.87451  -1.87440  -1.87416  -1.87261  -1.87232
 Alpha  occ. eigenvalues --   -1.87089  -1.86622  -1.86502  -1.86492  -1.86478
 Alpha  occ. eigenvalues --   -1.86445  -1.86423  -1.86337  -1.86307  -1.86297
 Alpha  occ. eigenvalues --   -1.86288  -1.86266  -1.86256  -1.86137  -1.86123
 Alpha  occ. eigenvalues --   -1.86110  -1.86097  -1.86029  -1.86012  -1.85982
 Alpha  occ. eigenvalues --   -1.85908  -1.85886  -1.85789  -1.85713  -1.85656
 Alpha  occ. eigenvalues --   -1.51219  -1.51129  -1.51113  -1.13020  -1.11245
 Alpha  occ. eigenvalues --   -1.11160  -1.11158  -1.08969  -1.08531  -1.08499
 Alpha  occ. eigenvalues --   -1.08308  -1.07556  -1.07486  -1.07480  -1.06897
 Alpha  occ. eigenvalues --   -1.06885  -1.06867  -1.06289  -1.06267  -1.05362
 Alpha  occ. eigenvalues --   -1.05355  -1.04975  -1.04970  -1.04953  -1.04236
 Alpha  occ. eigenvalues --   -1.04228  -1.04191  -1.04046  -1.04013  -1.03995
 Alpha  occ. eigenvalues --   -1.03937  -1.03921  -1.03892  -1.03763  -1.03750
 Alpha  occ. eigenvalues --   -1.03616  -1.03571  -1.03305  -1.03271  -1.03164
 Alpha  occ. eigenvalues --   -1.03145  -1.03082  -1.02996  -0.94371  -0.86685
 Alpha  occ. eigenvalues --   -0.86603  -0.86591  -0.86521  -0.86495  -0.86493
 Alpha  occ. eigenvalues --   -0.86420  -0.86395  -0.86389  -0.86384  -0.82812
 Alpha  occ. eigenvalues --   -0.79743  -0.71516  -0.69667  -0.68011  -0.64579
 Alpha  occ. eigenvalues --   -0.63950  -0.63885  -0.63864  -0.63274  -0.63259
 Alpha  occ. eigenvalues --   -0.63148  -0.62968  -0.62664  -0.62599  -0.61936
 Alpha  occ. eigenvalues --   -0.61599  -0.61579  -0.61480  -0.61226  -0.61206
 Alpha  occ. eigenvalues --   -0.61165  -0.60421  -0.59463  -0.59439  -0.59419
 Alpha  occ. eigenvalues --   -0.59374  -0.59344  -0.58686  -0.58008  -0.57975
 Alpha  occ. eigenvalues --   -0.57894  -0.57058  -0.57035  -0.56999  -0.56262
 Alpha  occ. eigenvalues --   -0.56239  -0.56094  -0.55708  -0.54869  -0.54806
 Alpha  occ. eigenvalues --   -0.54767  -0.54528  -0.54236  -0.54116  -0.54101
 Alpha  occ. eigenvalues --   -0.54030  -0.53963  -0.53269  -0.53230  -0.53095
 Alpha  occ. eigenvalues --   -0.53053  -0.52913  -0.52740  -0.52708  -0.52657
 Alpha  occ. eigenvalues --   -0.52622  -0.52515  -0.52460  -0.52419  -0.51625
 Alpha  occ. eigenvalues --   -0.51606  -0.51382  -0.51344  -0.51319  -0.51259
 Alpha  occ. eigenvalues --   -0.51190  -0.51166  -0.50986  -0.50804  -0.50624
 Alpha  occ. eigenvalues --   -0.50600  -0.50598  -0.49961  -0.49945  -0.49294
 Alpha  occ. eigenvalues --   -0.49262  -0.49240  -0.49215  -0.49162  -0.49089
 Alpha  occ. eigenvalues --   -0.48907  -0.48081  -0.48037  -0.47924  -0.47642
 Alpha  occ. eigenvalues --   -0.47397  -0.47294  -0.47249  -0.47045  -0.46979
 Alpha  occ. eigenvalues --   -0.46923  -0.46636  -0.46630  -0.46460  -0.46216
 Alpha  occ. eigenvalues --   -0.46163  -0.46123  -0.45675  -0.45109  -0.44934
 Alpha  occ. eigenvalues --   -0.44901  -0.44201  -0.44159  -0.44040  -0.43549
 Alpha  occ. eigenvalues --   -0.43325  -0.43284  -0.43146  -0.43140  -0.43101
 Alpha  occ. eigenvalues --   -0.42777  -0.42752  -0.42717  -0.42627  -0.42610
 Alpha  occ. eigenvalues --   -0.42541  -0.42503  -0.42490  -0.42315  -0.42308
 Alpha  occ. eigenvalues --   -0.42281  -0.42062  -0.41923  -0.41884  -0.41871
 Alpha  occ. eigenvalues --   -0.41272  -0.41252  -0.41199  -0.41115  -0.40601
 Alpha  occ. eigenvalues --   -0.40588  -0.40577  -0.40342  -0.39456  -0.39446
 Alpha  occ. eigenvalues --   -0.37084  -0.32573  -0.29230  -0.25073  -0.25045
 Alpha  occ. eigenvalues --   -0.23439
 Alpha virt. eigenvalues --   -0.09371  -0.09169  -0.08295  -0.08249  -0.06864
 Alpha virt. eigenvalues --   -0.06837  -0.06740  -0.04384  -0.04100  -0.04046
 Alpha virt. eigenvalues --   -0.03724  -0.03500  -0.03438  -0.03220  -0.03064

 Mulliken charges:
               1
     1  Cl  -0.898275
     2  C   -0.082082
     3  C    0.046912
     4  C   -0.081451
     5  C   -0.034711
     6  C   -0.033021
     7  C   -0.048354
     8  H    0.028614
     9  H    0.029497
    10  H    0.041375
    11  H    0.037402
    12  H    0.039499
    13  C   -0.128006
    14  C    0.036320
    15  H    0.019207
    16  H    0.035762
    17  H    0.029056
    18  O   -0.660860
    19  O   -0.659211
    20  O   -0.654589
    21  O   -0.661494
    22  W    1.728668
    23  W    1.668899
    24  W    1.680412
    25  W    1.691527
    26  W    1.671510
    27  W    1.724022
    28  W    1.613086
    29  W    1.680496
    30  O   -0.320328
    31  O   -0.365539
    32  O   -0.365967
    33  O   -0.357415
    34  O   -0.661268
    35  O   -0.669231
    36  O   -0.658987
    37  O   -0.661281
    38  O   -0.366458
    39  O   -0.366647
    40  O   -0.298994
    41  O   -0.364853
    42  O   -0.668467
    43  O   -0.661553
    44  O   -0.657375
    45  O   -0.664710
    46  O   -0.366991
    47  O   -0.320492
    48  O   -0.359955
    49  O   -0.364362
    50  W    1.667957
    51  W    1.672986
    52  W    1.681990
    53  W    1.679890
    54  O   -0.722177
    55  O   -0.704835
    56  O   -0.723463
    57  O   -0.720963
    58  O   -0.702842
    59  O   -0.723971
    60  O   -0.722462
    61  O   -0.717821
    62  O   -0.722504
    63  O   -0.704699
    64  O   -0.723599
    65  O   -0.724545
    66  O   -0.800617
    67  O   -0.799845
    68  O   -0.797394
    69  O   -0.807656
    70  K    0.865678
    71  K    0.862702
    72  K    0.862424
    73  V    1.186435
 Sum of Mulliken charges =  -1.00000

 Dipole moment (field-independent basis, Debye):
    X=             50.2728    Y=            -51.5136    Z=            -39.0170  Tot=             81.8739
 Quadrupole moment (field-independent basis, Debye-Ang):
   XX=          -1044.5964   YY=           -888.9306   ZZ=           -921.4621
   XY=            450.3306   XZ=            451.6441   YZ=           -480.8291

 Normal termination of Gaussian 16 at Mon Jun  3 08:13:32 2024.
