 Gaussian 16, Revision C.01,
 Gaussian 16:  ES64L-G16RevC.01  3-Jul-2019

 ----------------------------------------------------------------------
 # def2svp wb97xd scrf=(smd,solvent=acetonitrile) g09default scf=(xqc,m
 axcycle=64) force guess=read nosymm
 ----------------------------------------------------------------------

 ----------
 Title Card
 ----------
 Symbolic Z-matrix:
 Charge = -1 Multiplicity = 1

                          Input orientation:
 ---------------------------------------------------------------------
 Center     Atomic      Atomic             Coordinates (Angstroms)
 Number     Number       Type             X           Y           Z
 ---------------------------------------------------------------------
      1         17           0       -9.711145    8.282568   10.540621
      2          6           0       -8.400957    4.301496   12.196923
      3          6           0       -9.214619    3.979843   11.094040
      4          6           0      -10.115321    2.906465   11.227712
      5          6           0      -10.209799    2.193094   12.419346
      6          6           0       -9.395009    2.525920   13.502522
      7          6           0       -8.489348    3.582509   13.384005
      8          1           0       -7.691679    5.128850   12.129046
      9          1           0      -10.757819    2.640123   10.383491
     10          1           0      -10.926323    1.372603   12.506471
     11          1           0       -9.455497    1.957595   14.433023
     12          1           0       -7.851294    3.855557   14.228108
     13          6           0       -9.174675    4.739147    9.842157
     14          6           0       -8.443899    5.851851    9.620765
     15          1           0       -9.822928    4.365314    9.041405
     16          1           0       -8.467455    6.358228    8.655534
     17          1           0       -7.742405    6.246016   10.356844
     18          8           0       -0.973276   -1.829000    7.450222
     19          8           0       -8.371374   -1.318760    7.458779
     20          8           0       -7.004537    1.327337   10.494075
     21          8           0       -2.323526   -4.399841   10.555987
     22         74           0       -3.369353    0.717518    6.513883
     23         74           0       -5.998731   -3.850502    6.580502
     24         74           0       -3.574227    0.882010   11.390892
     25         74           0       -5.770862   -3.900650   11.461220
     26         74           0       -2.451729   -2.587019    6.367812
     27         74           0       -6.894505   -0.548035    6.343619
     28         74           0       -6.772569   -0.272185   11.598685
     29         74           0       -2.558767   -2.745162   11.628192
     30          8           0       -3.121948    1.916807    5.352474
     31          8           0       -6.144889   -5.100707    5.439579
     32          8           0       -2.647946    1.726120   12.538508
     33          8           0       -6.680636   -4.718671   12.638137
     34          8           0       -2.657244   -0.905836    5.587163
     35          8           0       -6.686532   -2.282743    5.622427
     36          8           0       -5.265886    0.536844   12.364046
     37          8           0       -4.055826   -3.551959   12.407660
     38          8           0        0.351624   -0.091357    9.265737
     39          8           0       -9.699150   -2.994964    9.317990
     40          8           0       -6.382529    3.407280    8.683383
     41          8           0       -2.968254   -6.494009    8.746098
     42          8           0       -1.751388    0.728743    7.488415
     43          8           0       -7.601129   -3.879979    7.553221
     44          8           0       -4.477283    2.192373   10.423053
     45          8           0       -4.861259   -5.245372   10.513761
     46          8           0       -1.628260   -3.520141    5.209894
     47          8           0       -7.767136    0.256091    5.142995
     48          8           0       -7.984398   -0.169835   12.783567
     49          8           0       -1.329360   -2.874250   12.794191
     50         74           0       -1.215003   -0.591902    8.837262
     51         74           0       -8.132991   -2.504839    8.875106
     52         74           0       -5.891858    1.838010    9.053230
     53         74           0       -3.459077   -4.919983    9.158038
     54          8           0       -4.220831   -3.124928    6.064143
     55          8           0       -5.122753   -0.052677    6.017845
     56          8           0       -6.160470   -2.026157   11.924642
     57          8           0       -3.151372   -0.994574   11.921278
     58          8           0       -4.338948    1.581382    7.852330
     59          8           0       -5.000049   -4.705200    7.920445
     60          8           0       -2.285152    0.549280   10.073514
     61          8           0       -7.054107   -3.623143   10.131555
     62          8           0       -2.567458   -3.916336    7.850966
     63          8           0       -6.794206    0.782829    7.800872
     64          8           0       -7.806692   -1.178465   10.159891
     65          8           0       -1.537724   -1.895889   10.149613
     66          8           0       -3.342839   -1.168917    8.013376
     67          8           0       -6.002484   -1.968907    8.036436
     68          8           0       -5.093898   -0.220634    9.947074
     69          8           0       -4.230839   -2.857379    9.975209
     70         19           0       -3.226041   -6.151992    5.648368
     71         19           0       -0.122270   -0.034046   12.322241
     72         19           0       -9.299067   -2.821497   12.393980
     73         23           0       -4.669592   -1.549767    8.990286
 ---------------------------------------------------------------------

 SCF Done:  E(UwB97XD) =  -7327.70229278     A.U. after   33 cycles

 Alpha  occ. eigenvalues --  -19.24662 -18.94009 -18.92927 -18.92878 -13.36514
 Alpha  occ. eigenvalues --  -13.36506 -13.36418 -10.69441 -10.69437 -10.69436
 Alpha  occ. eigenvalues --  -10.69435 -10.69430 -10.69426 -10.69346 -10.69342
 Alpha  occ. eigenvalues --  -10.69341 -10.33090 -10.32332 -10.32036 -10.31049
 Alpha  occ. eigenvalues --  -10.31023 -10.31018 -10.30581 -10.30554  -9.52499
 Alpha  occ. eigenvalues --   -7.27384  -7.27041  -7.27038  -3.21080  -3.21066
 Alpha  occ. eigenvalues --   -3.21049  -3.21009  -3.21008  -3.20997  -3.20986
 Alpha  occ. eigenvalues --   -3.20979  -3.20967  -3.20838  -3.20828  -3.20802
 Alpha  occ. eigenvalues --   -2.78752  -1.85325  -1.85275  -1.85266  -1.85227
 Alpha  occ. eigenvalues --   -1.85127  -1.85066  -1.85051  -1.85024  -1.85011
 Alpha  occ. eigenvalues --   -1.85001  -1.84982  -1.84931  -1.84381  -1.84268
 Alpha  occ. eigenvalues --   -1.84260  -1.84240  -1.84203  -1.84193  -1.84138
 Alpha  occ. eigenvalues --   -1.84112  -1.84090  -1.84078  -1.84049  -1.84042
 Alpha  occ. eigenvalues --   -1.83937  -1.83901  -1.83875  -1.83869  -1.83846
 Alpha  occ. eigenvalues --   -1.83812  -1.83783  -1.83775  -1.83766  -1.83674
 Alpha  occ. eigenvalues --   -1.83667  -1.83650  -1.81920  -1.81585  -1.81561
 Alpha  occ. eigenvalues --   -1.50216  -1.50212  -1.50130  -1.08610  -1.06988
 Alpha  occ. eigenvalues --   -1.06948  -1.06909  -1.05996  -1.05990  -1.05967
 Alpha  occ. eigenvalues --   -1.04572  -1.04564  -1.04555  -1.03945  -1.03940
 Alpha  occ. eigenvalues --   -1.03692  -1.03345  -1.03318  -1.03296  -1.03057
 Alpha  occ. eigenvalues --   -1.03045  -1.02251  -1.02224  -1.02218  -1.02099
 Alpha  occ. eigenvalues --   -1.02029  -1.02006  -1.01913  -1.01904  -1.01802
 Alpha  occ. eigenvalues --   -1.01767  -1.01746  -1.01612  -1.01580  -1.01569
 Alpha  occ. eigenvalues --   -1.01309  -1.00824  -1.00797  -1.00746  -1.00741
 Alpha  occ. eigenvalues --   -0.99990  -0.99931  -0.99873  -0.96229  -0.89353
 Alpha  occ. eigenvalues --   -0.85662  -0.85656  -0.85584  -0.85519  -0.85504
 Alpha  occ. eigenvalues --   -0.85503  -0.85475  -0.85425  -0.85418  -0.84307
 Alpha  occ. eigenvalues --   -0.82493  -0.80985  -0.71952  -0.69661  -0.65129
 Alpha  occ. eigenvalues --   -0.62289  -0.61680  -0.61624  -0.61598  -0.60701
 Alpha  occ. eigenvalues --   -0.58971  -0.58944  -0.58936  -0.58895  -0.58823
 Alpha  occ. eigenvalues --   -0.58736  -0.58710  -0.58673  -0.58540  -0.57351
 Alpha  occ. eigenvalues --   -0.57317  -0.57282  -0.56996  -0.56802  -0.56484
 Alpha  occ. eigenvalues --   -0.56440  -0.56398  -0.56003  -0.55850  -0.55365
 Alpha  occ. eigenvalues --   -0.55356  -0.55318  -0.54427  -0.54197  -0.54172
 Alpha  occ. eigenvalues --   -0.54019  -0.53649  -0.53594  -0.53580  -0.52793
 Alpha  occ. eigenvalues --   -0.52657  -0.52600  -0.52487  -0.52453  -0.51493
 Alpha  occ. eigenvalues --   -0.51480  -0.51470  -0.51388  -0.51328  -0.50821
 Alpha  occ. eigenvalues --   -0.50561  -0.50535  -0.50484  -0.50395  -0.50339
 Alpha  occ. eigenvalues --   -0.50282  -0.50097  -0.50054  -0.50036  -0.49784
 Alpha  occ. eigenvalues --   -0.49685  -0.49656  -0.49509  -0.49488  -0.49303
 Alpha  occ. eigenvalues --   -0.49260  -0.49196  -0.49087  -0.49028  -0.48958
 Alpha  occ. eigenvalues --   -0.48730  -0.48556  -0.48536  -0.48482  -0.47740
 Alpha  occ. eigenvalues --   -0.47716  -0.47247  -0.46488  -0.46051  -0.46031
 Alpha  occ. eigenvalues --   -0.45883  -0.45871  -0.45761  -0.45634  -0.45221
 Alpha  occ. eigenvalues --   -0.45143  -0.45134  -0.44874  -0.44693  -0.44523
 Alpha  occ. eigenvalues --   -0.44491  -0.44464  -0.44284  -0.44275  -0.44259
 Alpha  occ. eigenvalues --   -0.43413  -0.43189  -0.42573  -0.42543  -0.42477
 Alpha  occ. eigenvalues --   -0.42312  -0.42179  -0.42163  -0.42157  -0.41638
 Alpha  occ. eigenvalues --   -0.41621  -0.41579  -0.41043  -0.41000  -0.40802
 Alpha  occ. eigenvalues --   -0.40782  -0.40775  -0.40447  -0.40437  -0.40402
 Alpha  occ. eigenvalues --   -0.40235  -0.40207  -0.40190  -0.40148  -0.39889
 Alpha  occ. eigenvalues --   -0.39361  -0.39286  -0.39268  -0.39176  -0.39056
 Alpha  occ. eigenvalues --   -0.38982  -0.38949  -0.38861  -0.38765  -0.38725
 Alpha  occ. eigenvalues --   -0.38347  -0.38324  -0.38290  -0.38175  -0.37214
 Alpha  occ. eigenvalues --   -0.37195  -0.34701  -0.34670  -0.33703  -0.30503
 Alpha  occ. eigenvalues --   -0.25710
 Alpha virt. eigenvalues --   -0.11966  -0.06164  -0.06117  -0.04707  -0.04662
 Alpha virt. eigenvalues --   -0.04555  -0.01523  -0.01389  -0.01329  -0.01079
 Alpha virt. eigenvalues --   -0.00910  -0.00875  -0.00838  -0.00154  -0.00081

  Beta  occ. eigenvalues -- -197.10741-129.99108-129.99106-129.99016-101.62494
  Beta  occ. eigenvalues --  -22.43172 -19.28511 -19.28509 -19.28450 -19.28436
  Beta  occ. eigenvalues --  -19.28385 -19.28373 -19.28361 -19.28350 -19.28324
  Beta  occ. eigenvalues --  -19.28267 -19.28229 -19.28153 -19.26990 -19.26963
  Beta  occ. eigenvalues --  -19.26950 -19.26926 -19.26922 -19.26913 -19.26874
  Beta  occ. eigenvalues --  -19.26871 -19.26871 -19.26859 -19.26856 -19.26848
  Beta  occ. eigenvalues --  -19.26845 -19.26842 -19.26833 -19.26815 -19.26814
  Beta  occ. eigenvalues --  -19.26803 -19.26798 -19.26786 -19.26778 -19.26734
  Beta  occ. eigenvalues --  -19.26687 -19.26654 -19.24723 -19.24682 -19.24652
  Beta  occ. eigenvalues --  -19.24637 -18.93664 -18.91488 -18.91393 -13.36514
  Beta  occ. eigenvalues --  -13.36506 -13.36418 -10.69441 -10.69437 -10.69436
  Beta  occ. eigenvalues --  -10.69435 -10.69430 -10.69426 -10.69346 -10.69342
  Beta  occ. eigenvalues --  -10.69341 -10.33375 -10.32448 -10.31983 -10.31151
  Beta  occ. eigenvalues --  -10.31145 -10.31125 -10.30522 -10.30494  -9.52948
  Beta  occ. eigenvalues --   -7.28794  -7.27348  -7.27344  -3.21075  -3.21065
  Beta  occ. eigenvalues --   -3.21049  -3.21007  -3.21003  -3.20991  -3.20980
  Beta  occ. eigenvalues --   -3.20973  -3.20961  -3.20837  -3.20823  -3.20797
  Beta  occ. eigenvalues --   -2.74692  -1.85320  -1.85270  -1.85261  -1.85219
  Beta  occ. eigenvalues --   -1.85122  -1.85059  -1.85046  -1.85017  -1.85003
  Beta  occ. eigenvalues --   -1.84992  -1.84976  -1.84922  -1.84379  -1.84265
  Beta  occ. eigenvalues --   -1.84257  -1.84237  -1.84200  -1.84190  -1.84135
  Beta  occ. eigenvalues --   -1.84110  -1.84087  -1.84075  -1.84046  -1.84039
  Beta  occ. eigenvalues --   -1.83935  -1.83898  -1.83872  -1.83866  -1.83844
  Beta  occ. eigenvalues --   -1.83809  -1.83780  -1.83772  -1.83763  -1.83672
  Beta  occ. eigenvalues --   -1.83664  -1.83647  -1.80583  -1.75930  -1.75724
  Beta  occ. eigenvalues --   -1.50216  -1.50212  -1.50130  -1.08593  -1.06967
  Beta  occ. eigenvalues --   -1.06928  -1.06883  -1.05993  -1.05988  -1.05965
  Beta  occ. eigenvalues --   -1.04573  -1.04564  -1.04554  -1.03946  -1.03940
  Beta  occ. eigenvalues --   -1.03625  -1.03312  -1.03280  -1.03266  -1.03056
  Beta  occ. eigenvalues --   -1.03036  -1.02232  -1.02204  -1.02196  -1.02091
  Beta  occ. eigenvalues --   -1.02025  -1.01993  -1.01908  -1.01889  -1.01797
  Beta  occ. eigenvalues --   -1.01764  -1.01742  -1.01606  -1.01577  -1.01554
  Beta  occ. eigenvalues --   -1.01309  -1.00812  -1.00770  -1.00746  -1.00737
  Beta  occ. eigenvalues --   -0.99853  -0.99791  -0.99751  -0.96459  -0.90031
  Beta  occ. eigenvalues --   -0.85662  -0.85656  -0.85584  -0.85519  -0.85504
  Beta  occ. eigenvalues --   -0.85503  -0.85475  -0.85425  -0.85418  -0.84598
  Beta  occ. eigenvalues --   -0.84377  -0.82723  -0.72210  -0.69783  -0.65376
  Beta  occ. eigenvalues --   -0.62289  -0.61679  -0.61624  -0.61597  -0.60906
  Beta  occ. eigenvalues --   -0.58965  -0.58942  -0.58935  -0.58806  -0.58753
  Beta  occ. eigenvalues --   -0.58720  -0.58697  -0.58654  -0.58540  -0.57329
  Beta  occ. eigenvalues --   -0.57162  -0.57113  -0.57021  -0.56912  -0.56486
  Beta  occ. eigenvalues --   -0.56408  -0.56363  -0.55805  -0.55593  -0.55344
  Beta  occ. eigenvalues --   -0.55335  -0.55320  -0.54618  -0.54187  -0.54162
  Beta  occ. eigenvalues --   -0.54006  -0.53618  -0.53576  -0.53534  -0.52861
  Beta  occ. eigenvalues --   -0.52658  -0.52587  -0.52466  -0.52448  -0.51479
  Beta  occ. eigenvalues --   -0.51454  -0.51450  -0.51327  -0.51270  -0.51018
  Beta  occ. eigenvalues --   -0.50549  -0.50469  -0.50459  -0.50336  -0.50242
  Beta  occ. eigenvalues --   -0.50175  -0.50064  -0.50053  -0.50005  -0.49732
  Beta  occ. eigenvalues --   -0.49664  -0.49624  -0.49499  -0.49478  -0.49302
  Beta  occ. eigenvalues --   -0.49236  -0.49195  -0.49051  -0.49007  -0.48933
  Beta  occ. eigenvalues --   -0.48722  -0.48556  -0.48532  -0.48475  -0.47932
  Beta  occ. eigenvalues --   -0.47698  -0.47660  -0.46057  -0.45905  -0.45874
  Beta  occ. eigenvalues --   -0.45807  -0.45677  -0.45575  -0.45221  -0.45163
  Beta  occ. eigenvalues --   -0.45142  -0.45057  -0.44873  -0.44692  -0.44496
  Beta  occ. eigenvalues --   -0.44480  -0.44426  -0.44277  -0.44236  -0.44217
  Beta  occ. eigenvalues --   -0.43407  -0.43293  -0.42524  -0.42486  -0.42441
  Beta  occ. eigenvalues --   -0.42265  -0.42240  -0.42133  -0.42117  -0.41655
  Beta  occ. eigenvalues --   -0.41614  -0.41559  -0.41465  -0.41046  -0.40966
  Beta  occ. eigenvalues --   -0.40772  -0.40738  -0.40714  -0.40432  -0.40425
  Beta  occ. eigenvalues --   -0.40387  -0.40189  -0.40178  -0.40160  -0.39832
  Beta  occ. eigenvalues --   -0.39669  -0.39358  -0.39190  -0.39135  -0.39135
  Beta  occ. eigenvalues --   -0.38949  -0.38921  -0.38863  -0.38744  -0.38715
  Beta  occ. eigenvalues --   -0.38676  -0.38340  -0.38315  -0.38283  -0.37704
  Beta  occ. eigenvalues --   -0.37214  -0.37191  -0.35636  -0.35602  -0.33990
  Beta  occ. eigenvalues --   -0.30888
  Beta virt. eigenvalues --   -0.06162  -0.06118  -0.04706  -0.04661  -0.04554
  Beta virt. eigenvalues --   -0.01519  -0.01384  -0.01323  -0.01073  -0.00905
  Beta virt. eigenvalues --   -0.00870  -0.00832  -0.00145  -0.00070  -0.00039

 Mulliken charges and spin densities:
               1          2
     1  Cl  -0.352358  -0.605762
     2  C   -0.036213  -0.097548
     3  C    0.010181   0.060057
     4  C   -0.035323  -0.093211
     5  C   -0.032502   0.059094
     6  C    0.008821  -0.116505
     7  C   -0.046659   0.059647
     8  H    0.049210   0.004192
     9  H    0.051226   0.003988
    10  H    0.056536  -0.002094
    11  H    0.057769   0.005112
    12  H    0.054351  -0.002090
    13  C    0.004767  -0.264965
    14  C   -0.036890  -0.019570
    15  H    0.075398   0.010893
    16  H    0.095181   0.000950
    17  H    0.090720  -0.000835
    18  O   -0.669772  -0.000555
    19  O   -0.668099  -0.000506
    20  O   -0.665200  -0.001389
    21  O   -0.670503  -0.000531
    22  W    1.711876   0.000355
    23  W    1.654481   0.000489
    24  W    1.667712   0.000169
    25  W    1.677311   0.000218
    26  W    1.657648   0.002755
    27  W    1.706048   0.002481
    28  W    1.604673   0.003326
    29  W    1.666225   0.002867
    30  O   -0.350294  -0.000527
    31  O   -0.393953  -0.000566
    32  O   -0.394607  -0.000619
    33  O   -0.386305  -0.000562
    34  O   -0.669683  -0.000313
    35  O   -0.676583  -0.000048
    36  O   -0.667933  -0.000159
    37  O   -0.670234  -0.000230
    38  O   -0.396419   0.002074
    39  O   -0.396847   0.002123
    40  O   -0.341231   0.000559
    41  O   -0.395015   0.002108
    42  O   -0.675990   0.000073
    43  O   -0.670161   0.000174
    44  O   -0.666066   0.000290
    45  O   -0.672958   0.000115
    46  O   -0.397002   0.002311
    47  O   -0.352275   0.002183
    48  O   -0.393429   0.001836
    49  O   -0.394589   0.002355
    50  W    1.653958   0.002819
    51  W    1.658605   0.002726
    52  W    1.675091   0.003782
    53  W    1.665171   0.002668
    54  O   -0.720136   0.000090
    55  O   -0.703121  -0.000000
    56  O   -0.720369   0.000126
    57  O   -0.718999   0.000059
    58  O   -0.700733   0.000082
    59  O   -0.721329   0.000160
    60  O   -0.720026   0.000214
    61  O   -0.715624   0.000204
    62  O   -0.720890  -0.000176
    63  O   -0.703352  -0.000056
    64  O   -0.722682  -0.000187
    65  O   -0.722700  -0.000200
    66  O   -0.882937   0.005230
    67  O   -0.882910   0.007320
    68  O   -0.880438   0.007287
    69  O   -0.887499   0.006633
    70  K    0.852048   0.000196
    71  K    0.848843   0.000224
    72  K    0.848593   0.000223
    73  V    1.196401   0.936366
 Sum of Mulliken charges =  -1.00000   0.00000

 Dipole moment (field-independent basis, Debye):
    X=             27.8097    Y=            -13.8475    Z=            -30.9016  Tot=             43.8183
 Quadrupole moment (field-independent basis, Debye-Ang):
   XX=           -757.1029   YY=           -710.4013   ZZ=           -786.3091
   XY=            127.3834   XZ=            172.9711   YZ=            -94.7770

 Normal termination of Gaussian 16 at Mon Jun  3 08:02:51 2024.
