 Gaussian 16, Revision C.01,
 Gaussian 16:  ES64L-G16RevC.01  3-Jul-2019

 ----------------------------------------------------------------------
 # def2svp wb97xd scrf=(smd,solvent=acetonitrile) g09default scf=(xqc,m
 axcycle=64) force guess=read nosymm
 ----------------------------------------------------------------------

 ----------
 Title Card
 ----------
 Symbolic Z-matrix:
 Charge = -1 Multiplicity = 1

                          Input orientation:
 ---------------------------------------------------------------------
 Center     Atomic      Atomic             Coordinates (Angstroms)
 Number     Number       Type             X           Y           Z
 ---------------------------------------------------------------------
      1         17           0       -9.715254    8.283453   10.541332
      2          6           0       -8.402914    4.303395   12.196806
      3          6           0       -9.218017    3.982646   11.094747
      4          6           0      -10.117582    2.908264   11.228332
      5          6           0      -10.209760    2.193355   12.419260
      6          6           0       -9.394179    2.525917   13.501882
      7          6           0       -8.489140    3.583016   13.383219
      8          1           0       -7.693928    5.130933   12.128470
      9          1           0      -10.760540    2.641706   10.384533
     10          1           0      -10.924713    1.371447   12.506128
     11          1           0       -9.453423    1.956868   14.432012
     12          1           0       -7.849481    3.854916   14.226457
     13          6           0       -9.178687    4.742625    9.843181
     14          6           0       -8.444307    5.852476    9.619791
     15          1           0       -9.830170    4.371577    9.043804
     16          1           0       -8.466874    6.357420    8.653760
     17          1           0       -7.740424    6.245178   10.354402
     18          8           0       -0.972969   -1.829628    7.449754
     19          8           0       -8.371170   -1.318402    7.458488
     20          8           0       -7.004232    1.326751   10.494721
     21          8           0       -2.322928   -4.400384   10.556122
     22         74           0       -3.368633    0.717658    6.514706
     23         74           0       -5.999159   -3.850875    6.581390
     24         74           0       -3.573352    0.881894   11.390545
     25         74           0       -5.770737   -3.901596   11.460173
     26         74           0       -2.452186   -2.587150    6.366996
     27         74           0       -6.893651   -0.548043    6.343284
     28         74           0       -6.771445   -0.272794   11.599574
     29         74           0       -2.558877   -2.745405   11.628689
     30          8           0       -3.120759    1.917118    5.353507
     31          8           0       -6.145776   -5.101178    5.440819
     32          8           0       -2.646838    1.726492   12.537674
     33          8           0       -6.680484   -4.720046   12.636725
     34          8           0       -2.656713   -0.905619    5.587195
     35          8           0       -6.686173   -2.282855    5.622664
     36          8           0       -5.265058    0.536628   12.364475
     37          8           0       -4.055728   -3.552809   12.407435
     38          8           0        0.352536   -0.093586    9.265495
     39          8           0       -9.699508   -2.993013    9.318361
     40          8           0       -6.383502    3.406747    8.684337
     41          8           0       -2.966556   -6.493862    8.745785
     42          8           0       -1.750748    0.728328    7.489081
     43          8           0       -7.601531   -3.879746    7.553621
     44          8           0       -4.477065    2.192092   10.423198
     45          8           0       -4.860741   -5.245936   10.513016
     46          8           0       -1.629238   -3.520341    5.208710
     47          8           0       -7.765793    0.256157    5.142475
     48          8           0       -7.983129   -0.170988   12.784671
     49          8           0       -1.329336   -2.874809   12.794523
     50         74           0       -1.214503   -0.593393    8.837013
     51         74           0       -8.133249   -2.503741    8.875242
     52         74           0       -5.892049    1.837487    9.053819
     53         74           0       -3.457696   -4.920044    9.157886
     54          8           0       -4.220985   -3.124874    6.064103
     55          8           0       -5.121987   -0.052780    6.018012
     56          8           0       -6.159647   -2.026771   11.924253
     57          8           0       -3.150906   -0.994872   11.921952
     58          8           0       -4.338736    1.581241    7.852772
     59          8           0       -4.999578   -4.704976    7.920638
     60          8           0       -2.284727    0.548390   10.073499
     61          8           0       -7.054085   -3.623128   10.131101
     62          8           0       -2.566829   -3.916344    7.850664
     63          8           0       -6.793823    0.782409    7.801111
     64          8           0       -7.806221   -1.178178   10.160083
     65          8           0       -1.537984   -1.896825   10.149550
     66          8           0       -3.342656   -1.169319    8.013239
     67          8           0       -6.002334   -1.968893    8.036691
     68          8           0       -5.093344   -0.221064    9.947429
     69          8           0       -4.230288   -2.857708    9.975195
     70         19           0       -3.226399   -6.152648    5.648329
     71         19           0       -0.120761   -0.036472   12.323633
     72         19           0       -9.299926   -2.821885   12.392943
     73         23           0       -4.669192   -1.550009    8.990397
 ---------------------------------------------------------------------

 SCF Done:  E(RwB97XD) =  -7327.70232887     A.U. after   11 cycles

 Alpha  occ. eigenvalues -- -197.29325-130.00131-130.00045-130.00023-101.48283
 Alpha  occ. eigenvalues --  -22.62463 -19.33620 -19.33612 -19.33607 -19.33586
 Alpha  occ. eigenvalues --  -19.30728 -19.30689 -19.30687 -19.30678 -19.30664
 Alpha  occ. eigenvalues --  -19.30658 -19.30649 -19.30635 -19.30585 -19.30365
 Alpha  occ. eigenvalues --  -19.30339 -19.30176 -19.29382 -19.29366 -19.29361
 Alpha  occ. eigenvalues --  -19.29348 -19.29339 -19.29318 -19.29310 -19.29285
 Alpha  occ. eigenvalues --  -19.29244 -19.29232 -19.29217 -19.29210 -19.29196
 Alpha  occ. eigenvalues --  -19.29161 -19.29132 -19.29121 -19.29120 -19.29119
 Alpha  occ. eigenvalues --  -19.29111 -19.29094 -19.29046 -19.29007 -19.28978
 Alpha  occ. eigenvalues --  -19.28906 -19.11418 -19.11410 -19.11401 -13.37533
 Alpha  occ. eigenvalues --  -13.37438 -13.37419 -10.70463 -10.70456 -10.70455
 Alpha  occ. eigenvalues --  -10.70369 -10.70362 -10.70358 -10.70350 -10.70343
 Alpha  occ. eigenvalues --  -10.70342 -10.29892 -10.29325 -10.29312 -10.29053
 Alpha  occ. eigenvalues --  -10.29006 -10.28922 -10.28239 -10.27487  -9.38753
 Alpha  occ. eigenvalues --   -7.13583  -7.13527  -7.13524  -3.23293  -3.23281
 Alpha  occ. eigenvalues --   -3.23278  -3.23276  -3.23259  -3.23231  -3.23229
 Alpha  occ. eigenvalues --   -3.23225  -3.23212  -3.22944  -3.22932  -3.22761
 Alpha  occ. eigenvalues --   -2.91746  -1.94136  -1.94106  -1.94096  -1.87704
 Alpha  occ. eigenvalues --   -1.87649  -1.87640  -1.87607  -1.87479  -1.87458
 Alpha  occ. eigenvalues --   -1.87449  -1.87439  -1.87415  -1.87260  -1.87231
 Alpha  occ. eigenvalues --   -1.87088  -1.86621  -1.86501  -1.86491  -1.86477
 Alpha  occ. eigenvalues --   -1.86443  -1.86423  -1.86335  -1.86305  -1.86295
 Alpha  occ. eigenvalues --   -1.86286  -1.86265  -1.86255  -1.86136  -1.86122
 Alpha  occ. eigenvalues --   -1.86108  -1.86095  -1.86028  -1.86011  -1.85981
 Alpha  occ. eigenvalues --   -1.85907  -1.85884  -1.85788  -1.85713  -1.85657
 Alpha  occ. eigenvalues --   -1.51221  -1.51130  -1.51117  -1.13020  -1.11245
 Alpha  occ. eigenvalues --   -1.11161  -1.11157  -1.08968  -1.08530  -1.08498
 Alpha  occ. eigenvalues --   -1.08307  -1.07555  -1.07486  -1.07479  -1.06896
 Alpha  occ. eigenvalues --   -1.06884  -1.06865  -1.06287  -1.06265  -1.05362
 Alpha  occ. eigenvalues --   -1.05356  -1.04974  -1.04969  -1.04953  -1.04236
 Alpha  occ. eigenvalues --   -1.04227  -1.04191  -1.04045  -1.04013  -1.03993
 Alpha  occ. eigenvalues --   -1.03936  -1.03920  -1.03891  -1.03762  -1.03748
 Alpha  occ. eigenvalues --   -1.03615  -1.03571  -1.03303  -1.03271  -1.03164
 Alpha  occ. eigenvalues --   -1.03144  -1.03082  -1.02996  -0.94374  -0.86686
 Alpha  occ. eigenvalues --   -0.86604  -0.86594  -0.86524  -0.86496  -0.86495
 Alpha  occ. eigenvalues --   -0.86421  -0.86399  -0.86392  -0.86385  -0.82814
 Alpha  occ. eigenvalues --   -0.79748  -0.71505  -0.69669  -0.68016  -0.64577
 Alpha  occ. eigenvalues --   -0.63948  -0.63882  -0.63863  -0.63274  -0.63259
 Alpha  occ. eigenvalues --   -0.63148  -0.62972  -0.62665  -0.62599  -0.61935
 Alpha  occ. eigenvalues --   -0.61599  -0.61579  -0.61480  -0.61224  -0.61204
 Alpha  occ. eigenvalues --   -0.61164  -0.60421  -0.59462  -0.59439  -0.59418
 Alpha  occ. eigenvalues --   -0.59372  -0.59343  -0.58691  -0.58008  -0.57976
 Alpha  occ. eigenvalues --   -0.57894  -0.57059  -0.57035  -0.56999  -0.56260
 Alpha  occ. eigenvalues --   -0.56236  -0.56093  -0.55707  -0.54867  -0.54805
 Alpha  occ. eigenvalues --   -0.54767  -0.54531  -0.54236  -0.54116  -0.54101
 Alpha  occ. eigenvalues --   -0.54029  -0.53963  -0.53269  -0.53229  -0.53094
 Alpha  occ. eigenvalues --   -0.53053  -0.52913  -0.52739  -0.52706  -0.52657
 Alpha  occ. eigenvalues --   -0.52621  -0.52515  -0.52460  -0.52423  -0.51625
 Alpha  occ. eigenvalues --   -0.51605  -0.51382  -0.51343  -0.51319  -0.51258
 Alpha  occ. eigenvalues --   -0.51189  -0.51165  -0.50989  -0.50804  -0.50623
 Alpha  occ. eigenvalues --   -0.50599  -0.50597  -0.49963  -0.49947  -0.49293
 Alpha  occ. eigenvalues --   -0.49261  -0.49242  -0.49214  -0.49162  -0.49088
 Alpha  occ. eigenvalues --   -0.48906  -0.48080  -0.48036  -0.47923  -0.47645
 Alpha  occ. eigenvalues --   -0.47396  -0.47294  -0.47249  -0.47046  -0.46979
 Alpha  occ. eigenvalues --   -0.46924  -0.46637  -0.46630  -0.46458  -0.46216
 Alpha  occ. eigenvalues --   -0.46162  -0.46123  -0.45679  -0.45108  -0.44933
 Alpha  occ. eigenvalues --   -0.44900  -0.44200  -0.44157  -0.44040  -0.43553
 Alpha  occ. eigenvalues --   -0.43325  -0.43284  -0.43145  -0.43140  -0.43100
 Alpha  occ. eigenvalues --   -0.42778  -0.42752  -0.42718  -0.42627  -0.42610
 Alpha  occ. eigenvalues --   -0.42542  -0.42503  -0.42490  -0.42315  -0.42308
 Alpha  occ. eigenvalues --   -0.42281  -0.42063  -0.41924  -0.41884  -0.41871
 Alpha  occ. eigenvalues --   -0.41273  -0.41255  -0.41202  -0.41116  -0.40602
 Alpha  occ. eigenvalues --   -0.40589  -0.40577  -0.40341  -0.39455  -0.39445
 Alpha  occ. eigenvalues --   -0.37090  -0.32576  -0.29232  -0.25065  -0.25036
 Alpha  occ. eigenvalues --   -0.23436
 Alpha virt. eigenvalues --   -0.09371  -0.09169  -0.08289  -0.08243  -0.06859
 Alpha virt. eigenvalues --   -0.06832  -0.06733  -0.04384  -0.04100  -0.04045
 Alpha virt. eigenvalues --   -0.03723  -0.03498  -0.03436  -0.03218  -0.03062

 Mulliken charges:
               1
     1  Cl  -0.898805
     2  C   -0.081982
     3  C    0.046596
     4  C   -0.081389
     5  C   -0.034731
     6  C   -0.033034
     7  C   -0.048278
     8  H    0.028583
     9  H    0.029544
    10  H    0.041430
    11  H    0.037438
    12  H    0.039533
    13  C   -0.127944
    14  C    0.036560
    15  H    0.019140
    16  H    0.035865
    17  H    0.029219
    18  O   -0.660706
    19  O   -0.659130
    20  O   -0.654554
    21  O   -0.661356
    22  W    1.728564
    23  W    1.668699
    24  W    1.680337
    25  W    1.691435
    26  W    1.671259
    27  W    1.723908
    28  W    1.612931
    29  W    1.680245
    30  O   -0.320366
    31  O   -0.365456
    32  O   -0.365923
    33  O   -0.357332
    34  O   -0.661216
    35  O   -0.669201
    36  O   -0.658908
    37  O   -0.661211
    38  O   -0.366542
    39  O   -0.366717
    40  O   -0.299178
    41  O   -0.364851
    42  O   -0.668392
    43  O   -0.661455
    44  O   -0.657349
    45  O   -0.664630
    46  O   -0.367037
    47  O   -0.320457
    48  O   -0.360011
    49  O   -0.364468
    50  W    1.667858
    51  W    1.672681
    52  W    1.682001
    53  W    1.679611
    54  O   -0.721979
    55  O   -0.704769
    56  O   -0.723370
    57  O   -0.720831
    58  O   -0.702799
    59  O   -0.723920
    60  O   -0.722278
    61  O   -0.717745
    62  O   -0.722399
    63  O   -0.704666
    64  O   -0.723453
    65  O   -0.724512
    66  O   -0.800655
    67  O   -0.799794
    68  O   -0.797418
    69  O   -0.807690
    70  K    0.865749
    71  K    0.862835
    72  K    0.862475
    73  V    1.186392
 Sum of Mulliken charges =  -1.00000

 Dipole moment (field-independent basis, Debye):
    X=             50.2940    Y=            -51.5436    Z=            -39.0181  Tot=             81.9063
 Quadrupole moment (field-independent basis, Debye-Ang):
   XX=          -1044.9422   YY=           -889.0659   ZZ=           -921.4703
   XY=            450.7224   XZ=            451.9727   YZ=           -481.1760

 Normal termination of Gaussian 16 at Mon Jun  3 08:49:24 2024.
