 Gaussian 16, Revision C.01,
 Gaussian 16:  ES64L-G16RevC.01  3-Jul-2019

 ----------------------------------------------------------------------
 # def2svp wb97xd scrf=(smd,solvent=acetonitrile) g09default scf=(xqc,m
 axcycle=64) force guess=read nosymm
 ----------------------------------------------------------------------

 ----------
 Title Card
 ----------
 Symbolic Z-matrix:
 Charge = -1 Multiplicity = 1

                          Input orientation:
 ---------------------------------------------------------------------
 Center     Atomic      Atomic             Coordinates (Angstroms)
 Number     Number       Type             X           Y           Z
 ---------------------------------------------------------------------
      1         17           0       -9.715254    8.283453   10.541332
      2          6           0       -8.402914    4.303395   12.196806
      3          6           0       -9.218017    3.982646   11.094747
      4          6           0      -10.117582    2.908264   11.228332
      5          6           0      -10.209760    2.193355   12.419260
      6          6           0       -9.394179    2.525917   13.501882
      7          6           0       -8.489140    3.583016   13.383219
      8          1           0       -7.693928    5.130933   12.128470
      9          1           0      -10.760540    2.641706   10.384533
     10          1           0      -10.924713    1.371447   12.506128
     11          1           0       -9.453423    1.956868   14.432012
     12          1           0       -7.849481    3.854916   14.226457
     13          6           0       -9.178687    4.742625    9.843181
     14          6           0       -8.444307    5.852476    9.619791
     15          1           0       -9.830170    4.371577    9.043804
     16          1           0       -8.466874    6.357420    8.653760
     17          1           0       -7.740424    6.245178   10.354402
     18          8           0       -0.972969   -1.829628    7.449754
     19          8           0       -8.371170   -1.318402    7.458488
     20          8           0       -7.004232    1.326751   10.494721
     21          8           0       -2.322928   -4.400384   10.556122
     22         74           0       -3.368633    0.717658    6.514706
     23         74           0       -5.999159   -3.850875    6.581390
     24         74           0       -3.573352    0.881894   11.390545
     25         74           0       -5.770737   -3.901596   11.460173
     26         74           0       -2.452186   -2.587150    6.366996
     27         74           0       -6.893651   -0.548043    6.343284
     28         74           0       -6.771445   -0.272794   11.599574
     29         74           0       -2.558877   -2.745405   11.628689
     30          8           0       -3.120759    1.917118    5.353507
     31          8           0       -6.145776   -5.101178    5.440819
     32          8           0       -2.646838    1.726492   12.537674
     33          8           0       -6.680484   -4.720046   12.636725
     34          8           0       -2.656713   -0.905619    5.587195
     35          8           0       -6.686173   -2.282855    5.622664
     36          8           0       -5.265058    0.536628   12.364475
     37          8           0       -4.055728   -3.552809   12.407435
     38          8           0        0.352536   -0.093586    9.265495
     39          8           0       -9.699508   -2.993013    9.318361
     40          8           0       -6.383502    3.406747    8.684337
     41          8           0       -2.966556   -6.493862    8.745785
     42          8           0       -1.750748    0.728328    7.489081
     43          8           0       -7.601531   -3.879746    7.553621
     44          8           0       -4.477065    2.192092   10.423198
     45          8           0       -4.860741   -5.245936   10.513016
     46          8           0       -1.629238   -3.520341    5.208710
     47          8           0       -7.765793    0.256157    5.142475
     48          8           0       -7.983129   -0.170988   12.784671
     49          8           0       -1.329336   -2.874809   12.794523
     50         74           0       -1.214503   -0.593393    8.837013
     51         74           0       -8.133249   -2.503741    8.875242
     52         74           0       -5.892049    1.837487    9.053819
     53         74           0       -3.457696   -4.920044    9.157886
     54          8           0       -4.220985   -3.124874    6.064103
     55          8           0       -5.121987   -0.052780    6.018012
     56          8           0       -6.159647   -2.026771   11.924253
     57          8           0       -3.150906   -0.994872   11.921952
     58          8           0       -4.338736    1.581241    7.852772
     59          8           0       -4.999578   -4.704976    7.920638
     60          8           0       -2.284727    0.548390   10.073499
     61          8           0       -7.054085   -3.623128   10.131101
     62          8           0       -2.566829   -3.916344    7.850664
     63          8           0       -6.793823    0.782409    7.801111
     64          8           0       -7.806221   -1.178178   10.160083
     65          8           0       -1.537984   -1.896825   10.149550
     66          8           0       -3.342656   -1.169319    8.013239
     67          8           0       -6.002334   -1.968893    8.036691
     68          8           0       -5.093344   -0.221064    9.947429
     69          8           0       -4.230288   -2.857708    9.975195
     70         19           0       -3.226399   -6.152648    5.648329
     71         19           0       -0.120761   -0.036472   12.323633
     72         19           0       -9.299926   -2.821885   12.392943
     73         23           0       -4.669192   -1.550009    8.990397
 ---------------------------------------------------------------------

 SCF Done:  E(UwB97XD) =  -7327.70231154     A.U. after   37 cycles

 Alpha  occ. eigenvalues --  -19.24659 -18.94009 -18.92925 -18.92880 -13.36516
 Alpha  occ. eigenvalues --  -13.36507 -13.36423 -10.69443 -10.69439 -10.69438
 Alpha  occ. eigenvalues --  -10.69436 -10.69432 -10.69427 -10.69350 -10.69346
 Alpha  occ. eigenvalues --  -10.69345 -10.33088 -10.32332 -10.32036 -10.31050
 Alpha  occ. eigenvalues --  -10.31021 -10.31016 -10.30581 -10.30553  -9.52512
 Alpha  occ. eigenvalues --   -7.27397  -7.27053  -7.27050  -3.21078  -3.21065
 Alpha  occ. eigenvalues --   -3.21045  -3.21007  -3.21005  -3.20994  -3.20984
 Alpha  occ. eigenvalues --   -3.20977  -3.20965  -3.20837  -3.20827  -3.20799
 Alpha  occ. eigenvalues --   -2.78752  -1.85323  -1.85274  -1.85265  -1.85224
 Alpha  occ. eigenvalues --   -1.85125  -1.85064  -1.85050  -1.85021  -1.85010
 Alpha  occ. eigenvalues --   -1.84999  -1.84979  -1.84929  -1.84380  -1.84266
 Alpha  occ. eigenvalues --   -1.84259  -1.84238  -1.84201  -1.84191  -1.84136
 Alpha  occ. eigenvalues --   -1.84110  -1.84088  -1.84076  -1.84047  -1.84040
 Alpha  occ. eigenvalues --   -1.83935  -1.83899  -1.83873  -1.83867  -1.83845
 Alpha  occ. eigenvalues --   -1.83810  -1.83781  -1.83773  -1.83764  -1.83673
 Alpha  occ. eigenvalues --   -1.83665  -1.83648  -1.81920  -1.81584  -1.81562
 Alpha  occ. eigenvalues --   -1.50218  -1.50213  -1.50134  -1.08609  -1.06987
 Alpha  occ. eigenvalues --   -1.06947  -1.06908  -1.05994  -1.05988  -1.05965
 Alpha  occ. eigenvalues --   -1.04571  -1.04562  -1.04553  -1.03943  -1.03937
 Alpha  occ. eigenvalues --   -1.03691  -1.03343  -1.03316  -1.03295  -1.03057
 Alpha  occ. eigenvalues --   -1.03044  -1.02250  -1.02223  -1.02217  -1.02097
 Alpha  occ. eigenvalues --   -1.02029  -1.02004  -1.01912  -1.01902  -1.01801
 Alpha  occ. eigenvalues --   -1.01765  -1.01745  -1.01610  -1.01579  -1.01569
 Alpha  occ. eigenvalues --   -1.01308  -1.00823  -1.00797  -1.00746  -1.00741
 Alpha  occ. eigenvalues --   -0.99990  -0.99931  -0.99872  -0.96227  -0.89352
 Alpha  occ. eigenvalues --   -0.85663  -0.85658  -0.85587  -0.85520  -0.85506
 Alpha  occ. eigenvalues --   -0.85504  -0.85476  -0.85429  -0.85422  -0.84305
 Alpha  occ. eigenvalues --   -0.82494  -0.80991  -0.71950  -0.69662  -0.65128
 Alpha  occ. eigenvalues --   -0.62287  -0.61677  -0.61622  -0.61595  -0.60702
 Alpha  occ. eigenvalues --   -0.58969  -0.58943  -0.58934  -0.58894  -0.58823
 Alpha  occ. eigenvalues --   -0.58734  -0.58708  -0.58671  -0.58539  -0.57350
 Alpha  occ. eigenvalues --   -0.57316  -0.57282  -0.56996  -0.56800  -0.56483
 Alpha  occ. eigenvalues --   -0.56438  -0.56396  -0.56002  -0.55849  -0.55365
 Alpha  occ. eigenvalues --   -0.55356  -0.55318  -0.54428  -0.54197  -0.54173
 Alpha  occ. eigenvalues --   -0.54019  -0.53647  -0.53591  -0.53577  -0.52792
 Alpha  occ. eigenvalues --   -0.52656  -0.52599  -0.52485  -0.52453  -0.51492
 Alpha  occ. eigenvalues --   -0.51479  -0.51469  -0.51387  -0.51328  -0.50820
 Alpha  occ. eigenvalues --   -0.50559  -0.50534  -0.50483  -0.50393  -0.50338
 Alpha  occ. eigenvalues --   -0.50281  -0.50097  -0.50053  -0.50036  -0.49783
 Alpha  occ. eigenvalues --   -0.49685  -0.49655  -0.49508  -0.49486  -0.49302
 Alpha  occ. eigenvalues --   -0.49259  -0.49195  -0.49084  -0.49024  -0.48956
 Alpha  occ. eigenvalues --   -0.48729  -0.48555  -0.48535  -0.48481  -0.47742
 Alpha  occ. eigenvalues --   -0.47717  -0.47248  -0.46487  -0.46050  -0.46031
 Alpha  occ. eigenvalues --   -0.45882  -0.45870  -0.45760  -0.45633  -0.45220
 Alpha  occ. eigenvalues --   -0.45142  -0.45133  -0.44874  -0.44694  -0.44523
 Alpha  occ. eigenvalues --   -0.44490  -0.44462  -0.44283  -0.44274  -0.44258
 Alpha  occ. eigenvalues --   -0.43412  -0.43188  -0.42573  -0.42543  -0.42477
 Alpha  occ. eigenvalues --   -0.42310  -0.42177  -0.42161  -0.42156  -0.41637
 Alpha  occ. eigenvalues --   -0.41620  -0.41579  -0.41042  -0.40999  -0.40801
 Alpha  occ. eigenvalues --   -0.40781  -0.40775  -0.40447  -0.40438  -0.40403
 Alpha  occ. eigenvalues --   -0.40235  -0.40206  -0.40189  -0.40147  -0.39888
 Alpha  occ. eigenvalues --   -0.39361  -0.39285  -0.39268  -0.39176  -0.39056
 Alpha  occ. eigenvalues --   -0.38983  -0.38950  -0.38862  -0.38765  -0.38725
 Alpha  occ. eigenvalues --   -0.38347  -0.38323  -0.38290  -0.38180  -0.37212
 Alpha  occ. eigenvalues --   -0.37194  -0.34709  -0.34678  -0.33703  -0.30504
 Alpha  occ. eigenvalues --   -0.25710
 Alpha virt. eigenvalues --   -0.11968  -0.06157  -0.06110  -0.04701  -0.04657
 Alpha virt. eigenvalues --   -0.04547  -0.01521  -0.01385  -0.01324  -0.01077
 Alpha virt. eigenvalues --   -0.00907  -0.00873  -0.00835  -0.00152  -0.00080

  Beta  occ. eigenvalues -- -197.10741-129.99108-129.99107-129.99020-101.62508
  Beta  occ. eigenvalues --  -22.43172 -19.28509 -19.28508 -19.28449 -19.28434
  Beta  occ. eigenvalues --  -19.28381 -19.28373 -19.28360 -19.28350 -19.28322
  Beta  occ. eigenvalues --  -19.28266 -19.28227 -19.28152 -19.26990 -19.26963
  Beta  occ. eigenvalues --  -19.26951 -19.26928 -19.26922 -19.26912 -19.26874
  Beta  occ. eigenvalues --  -19.26872 -19.26871 -19.26858 -19.26855 -19.26849
  Beta  occ. eigenvalues --  -19.26844 -19.26842 -19.26833 -19.26815 -19.26813
  Beta  occ. eigenvalues --  -19.26802 -19.26799 -19.26785 -19.26777 -19.26734
  Beta  occ. eigenvalues --  -19.26689 -19.26651 -19.24722 -19.24684 -19.24653
  Beta  occ. eigenvalues --  -19.24633 -18.93664 -18.91485 -18.91396 -13.36516
  Beta  occ. eigenvalues --  -13.36507 -13.36423 -10.69443 -10.69439 -10.69438
  Beta  occ. eigenvalues --  -10.69436 -10.69432 -10.69427 -10.69350 -10.69346
  Beta  occ. eigenvalues --  -10.69345 -10.33372 -10.32448 -10.31983 -10.31151
  Beta  occ. eigenvalues --  -10.31143 -10.31123 -10.30521 -10.30494  -9.52962
  Beta  occ. eigenvalues --   -7.28809  -7.27361  -7.27357  -3.21073  -3.21064
  Beta  occ. eigenvalues --   -3.21045  -3.21005  -3.21001  -3.20988  -3.20979
  Beta  occ. eigenvalues --   -3.20970  -3.20959  -3.20836  -3.20822  -3.20794
  Beta  occ. eigenvalues --   -2.74692  -1.85318  -1.85269  -1.85259  -1.85216
  Beta  occ. eigenvalues --   -1.85120  -1.85058  -1.85045  -1.85015  -1.85001
  Beta  occ. eigenvalues --   -1.84990  -1.84974  -1.84921  -1.84377  -1.84264
  Beta  occ. eigenvalues --   -1.84255  -1.84236  -1.84198  -1.84188  -1.84133
  Beta  occ. eigenvalues --   -1.84108  -1.84085  -1.84073  -1.84044  -1.84037
  Beta  occ. eigenvalues --   -1.83933  -1.83896  -1.83871  -1.83864  -1.83842
  Beta  occ. eigenvalues --   -1.83807  -1.83778  -1.83770  -1.83761  -1.83671
  Beta  occ. eigenvalues --   -1.83662  -1.83645  -1.80583  -1.75924  -1.75730
  Beta  occ. eigenvalues --   -1.50218  -1.50213  -1.50134  -1.08592  -1.06966
  Beta  occ. eigenvalues --   -1.06927  -1.06881  -1.05991  -1.05987  -1.05963
  Beta  occ. eigenvalues --   -1.04571  -1.04563  -1.04552  -1.03943  -1.03938
  Beta  occ. eigenvalues --   -1.03624  -1.03311  -1.03278  -1.03264  -1.03056
  Beta  occ. eigenvalues --   -1.03036  -1.02231  -1.02204  -1.02195  -1.02089
  Beta  occ. eigenvalues --   -1.02025  -1.01992  -1.01907  -1.01887  -1.01796
  Beta  occ. eigenvalues --   -1.01763  -1.01740  -1.01604  -1.01576  -1.01554
  Beta  occ. eigenvalues --   -1.01308  -1.00813  -1.00769  -1.00746  -1.00737
  Beta  occ. eigenvalues --   -0.99852  -0.99791  -0.99750  -0.96457  -0.90029
  Beta  occ. eigenvalues --   -0.85663  -0.85658  -0.85587  -0.85520  -0.85506
  Beta  occ. eigenvalues --   -0.85504  -0.85476  -0.85428  -0.85422  -0.84605
  Beta  occ. eigenvalues --   -0.84377  -0.82725  -0.72208  -0.69784  -0.65375
  Beta  occ. eigenvalues --   -0.62286  -0.61677  -0.61621  -0.61595  -0.60907
  Beta  occ. eigenvalues --   -0.58964  -0.58940  -0.58933  -0.58806  -0.58751
  Beta  occ. eigenvalues --   -0.58718  -0.58695  -0.58653  -0.58539  -0.57329
  Beta  occ. eigenvalues --   -0.57161  -0.57113  -0.57018  -0.56911  -0.56485
  Beta  occ. eigenvalues --   -0.56407  -0.56361  -0.55804  -0.55592  -0.55344
  Beta  occ. eigenvalues --   -0.55335  -0.55320  -0.54618  -0.54186  -0.54163
  Beta  occ. eigenvalues --   -0.54005  -0.53615  -0.53573  -0.53532  -0.52860
  Beta  occ. eigenvalues --   -0.52657  -0.52585  -0.52465  -0.52447  -0.51478
  Beta  occ. eigenvalues --   -0.51453  -0.51450  -0.51327  -0.51270  -0.51016
  Beta  occ. eigenvalues --   -0.50547  -0.50468  -0.50458  -0.50335  -0.50241
  Beta  occ. eigenvalues --   -0.50173  -0.50064  -0.50053  -0.50005  -0.49731
  Beta  occ. eigenvalues --   -0.49664  -0.49623  -0.49498  -0.49476  -0.49301
  Beta  occ. eigenvalues --   -0.49235  -0.49193  -0.49048  -0.49004  -0.48931
  Beta  occ. eigenvalues --   -0.48721  -0.48554  -0.48530  -0.48474  -0.47933
  Beta  occ. eigenvalues --   -0.47698  -0.47661  -0.46055  -0.45903  -0.45872
  Beta  occ. eigenvalues --   -0.45805  -0.45677  -0.45574  -0.45219  -0.45162
  Beta  occ. eigenvalues --   -0.45140  -0.45057  -0.44874  -0.44693  -0.44497
  Beta  occ. eigenvalues --   -0.44479  -0.44425  -0.44276  -0.44235  -0.44216
  Beta  occ. eigenvalues --   -0.43406  -0.43291  -0.42524  -0.42486  -0.42441
  Beta  occ. eigenvalues --   -0.42261  -0.42239  -0.42133  -0.42116  -0.41657
  Beta  occ. eigenvalues --   -0.41613  -0.41559  -0.41468  -0.41044  -0.40966
  Beta  occ. eigenvalues --   -0.40771  -0.40738  -0.40713  -0.40432  -0.40425
  Beta  occ. eigenvalues --   -0.40388  -0.40188  -0.40177  -0.40159  -0.39831
  Beta  occ. eigenvalues --   -0.39669  -0.39358  -0.39190  -0.39136  -0.39135
  Beta  occ. eigenvalues --   -0.38949  -0.38922  -0.38865  -0.38744  -0.38715
  Beta  occ. eigenvalues --   -0.38676  -0.38340  -0.38315  -0.38282  -0.37715
  Beta  occ. eigenvalues --   -0.37213  -0.37190  -0.35646  -0.35612  -0.33989
  Beta  occ. eigenvalues --   -0.30890
  Beta virt. eigenvalues --   -0.06155  -0.06111  -0.04700  -0.04655  -0.04546
  Beta virt. eigenvalues --   -0.01517  -0.01380  -0.01319  -0.01071  -0.00902
  Beta virt. eigenvalues --   -0.00869  -0.00830  -0.00142  -0.00069  -0.00038

 Mulliken charges and spin densities:
               1          2
     1  Cl  -0.351839  -0.606574
     2  C   -0.036183  -0.097313
     3  C    0.009990   0.059990
     4  C   -0.035333  -0.092974
     5  C   -0.032519   0.058931
     6  C    0.008722  -0.116165
     7  C   -0.046604   0.059504
     8  H    0.049132   0.004181
     9  H    0.051223   0.003978
    10  H    0.056558  -0.002087
    11  H    0.057758   0.005097
    12  H    0.054353  -0.002084
    13  C    0.004610  -0.264343
    14  C   -0.036777  -0.019867
    15  H    0.075239   0.010875
    16  H    0.095213   0.000962
    17  H    0.090743  -0.000771
    18  O   -0.669626  -0.000554
    19  O   -0.668022  -0.000504
    20  O   -0.665141  -0.001377
    21  O   -0.670371  -0.000530
    22  W    1.711776   0.000355
    23  W    1.654273   0.000489
    24  W    1.667622   0.000169
    25  W    1.677213   0.000217
    26  W    1.657388   0.002758
    27  W    1.705918   0.002483
    28  W    1.604481   0.003322
    29  W    1.665972   0.002872
    30  O   -0.350340  -0.000528
    31  O   -0.393873  -0.000566
    32  O   -0.394573  -0.000620
    33  O   -0.386230  -0.000562
    34  O   -0.669636  -0.000315
    35  O   -0.676552  -0.000050
    36  O   -0.667863  -0.000161
    37  O   -0.670167  -0.000234
    38  O   -0.396508   0.002071
    39  O   -0.396910   0.002117
    40  O   -0.341362   0.000573
    41  O   -0.395010   0.002103
    42  O   -0.675920   0.000075
    43  O   -0.670069   0.000175
    44  O   -0.666044   0.000292
    45  O   -0.672881   0.000117
    46  O   -0.397051   0.002314
    47  O   -0.352243   0.002187
    48  O   -0.393479   0.001843
    49  O   -0.394700   0.002361
    50  W    1.653849   0.002816
    51  W    1.658292   0.002722
    52  W    1.675085   0.003769
    53  W    1.664890   0.002663
    54  O   -0.719935   0.000090
    55  O   -0.703055  -0.000000
    56  O   -0.720265   0.000126
    57  O   -0.718882   0.000059
    58  O   -0.700695   0.000082
    59  O   -0.721262   0.000160
    60  O   -0.719829   0.000214
    61  O   -0.715543   0.000204
    62  O   -0.720785  -0.000175
    63  O   -0.703315  -0.000057
    64  O   -0.722529  -0.000187
    65  O   -0.722651  -0.000200
    66  O   -0.882975   0.005227
    67  O   -0.882873   0.007328
    68  O   -0.880456   0.007283
    69  O   -0.887533   0.006639
    70  K    0.852121   0.000196
    71  K    0.848987   0.000225
    72  K    0.848648   0.000224
    73  V    1.196354   0.936361
 Sum of Mulliken charges =  -1.00000  -0.00000

 Dipole moment (field-independent basis, Debye):
    X=             27.8101    Y=            -13.8489    Z=            -30.9030  Tot=             43.8200
 Quadrupole moment (field-independent basis, Debye-Ang):
   XX=           -757.0912   YY=           -710.2367   ZZ=           -786.3464
   XY=            127.3936   XZ=            173.0883   YZ=            -94.8133

 Normal termination of Gaussian 16 at Mon Jun  3 08:39:09 2024.
