 Gaussian 16, Revision C.01,
 Gaussian 16:  ES64L-G16RevC.01  3-Jul-2019

 ----------------------------------------------------------------------
 # def2svp wb97xd scrf=(smd,solvent=acetonitrile) g09default scf=(xqc,m
 axcycle=64) force guess=read nosymm
 ----------------------------------------------------------------------

 ----------
 Title Card
 ----------
 Symbolic Z-matrix:
 Charge = -1 Multiplicity = 1

                          Input orientation:
 ---------------------------------------------------------------------
 Center     Atomic      Atomic             Coordinates (Angstroms)
 Number     Number       Type             X           Y           Z
 ---------------------------------------------------------------------
      1         17           0       -9.720219    8.284500   10.542190
      2          6           0       -8.405294    4.305720   12.196663
      3          6           0       -9.222132    3.986087   11.095642
      4          6           0      -10.120339    2.910499   11.229045
      5          6           0      -10.209711    2.193658   12.419170
      6          6           0       -9.393163    2.525920   13.501081
      7          6           0       -8.488887    3.583622   13.382277
      8          1           0       -7.696636    5.133480   12.127813
      9          1           0      -10.763833    2.643687   10.385794
     10          1           0      -10.922728    1.370043   12.505661
     11          1           0       -9.450915    1.955976   14.430784
     12          1           0       -7.847262    3.854119   14.224454
     13          6           0       -9.183603    4.746849    9.844424
     14          6           0       -8.444831    5.853253    9.618588
     15          1           0       -9.839043    4.379186    9.046761
     16          1           0       -8.466264    6.356427    8.651557
     17          1           0       -7.738013    6.244174   10.351380
     18          8           0       -0.972606   -1.830391    7.449192
     19          8           0       -8.370936   -1.317960    7.458151
     20          8           0       -7.003846    1.326042   10.495499
     21          8           0       -2.322206   -4.401067   10.556276
     22         74           0       -3.367767    0.717903    6.515584
     23         74           0       -5.999666   -3.851189    6.582569
     24         74           0       -3.572246    0.881763   11.390209
     25         74           0       -5.770561   -3.902735   11.458884
     26         74           0       -2.452745   -2.587327    6.366025
     27         74           0       -6.892572   -0.548131    6.342994
     28         74           0       -6.770106   -0.273558   11.600648
     29         74           0       -2.559011   -2.745733   11.629274
     30          8           0       -3.119370    1.917381    5.354796
     31          8           0       -6.146832   -5.101823    5.442219
     32          8           0       -2.645522    1.726878   12.536662
     33          8           0       -6.680313   -4.721690   12.635031
     34          8           0       -2.656072   -0.905379    5.587231
     35          8           0       -6.685752   -2.282972    5.622955
     36          8           0       -5.264059    0.536359   12.364992
     37          8           0       -4.055591   -3.553843   12.407157
     38          8           0        0.353476   -0.096298    9.265200
     39          8           0       -9.700020   -2.990712    9.318859
     40          8           0       -6.384593    3.405979    8.685532
     41          8           0       -2.964499   -6.493788    8.745337
     42          8           0       -1.749986    0.727814    7.489879
     43          8           0       -7.602016   -3.879462    7.554094
     44          8           0       -4.476773    2.191726   10.423382
     45          8           0       -4.860113   -5.246633   10.512113
     46          8           0       -1.630395   -3.520607    5.207287
     47          8           0       -7.764239    0.256328    5.141795
     48          8           0       -7.981608   -0.172409   12.785987
     49          8           0       -1.329270   -2.875493   12.794918
     50         74           0       -1.213709   -0.595135    8.836787
     51         74           0       -8.133440   -2.502397    8.875359
     52         74           0       -5.892323    1.837020    9.054495
     53         74           0       -3.456077   -4.920016    9.157724
     54          8           0       -4.221149   -3.124805    6.064057
     55          8           0       -5.121061   -0.052912    6.018223
     56          8           0       -6.158628   -2.027496   11.923770
     57          8           0       -3.150344   -0.995255   11.922764
     58          8           0       -4.338465    1.581058    7.853307
     59          8           0       -4.999013   -4.704696    7.920875
     60          8           0       -2.284219    0.547303   10.073497
     61          8           0       -7.054039   -3.623102   10.130547
     62          8           0       -2.566066   -3.916365    7.850297
     63          8           0       -6.793345    0.781910    7.801414
     64          8           0       -7.805651   -1.177830   10.160322
     65          8           0       -1.538296   -1.897964   10.149468
     66          8           0       -3.342401   -1.169795    8.013059
     67          8           0       -6.002114   -1.968858    8.037033
     68          8           0       -5.092670   -0.221564    9.947874
     69          8           0       -4.229615   -2.858097    9.975164
     70         19           0       -3.226834   -6.153437    5.648280
     71         19           0       -0.118891   -0.039409   12.325344
     72         19           0       -9.300968   -2.822361   12.391683
     73         23           0       -4.668773   -1.550384    8.990519
 ---------------------------------------------------------------------

 SCF Done:  E(RwB97XD) =  -7327.70234307     A.U. after   12 cycles

 Alpha  occ. eigenvalues -- -197.29325-130.00132-130.00046-130.00028-101.48272
 Alpha  occ. eigenvalues --  -22.62464 -19.33621 -19.33610 -19.33609 -19.33584
 Alpha  occ. eigenvalues --  -19.30725 -19.30687 -19.30684 -19.30678 -19.30663
 Alpha  occ. eigenvalues --  -19.30657 -19.30645 -19.30633 -19.30583 -19.30366
 Alpha  occ. eigenvalues --  -19.30335 -19.30179 -19.29384 -19.29368 -19.29360
 Alpha  occ. eigenvalues --  -19.29351 -19.29340 -19.29319 -19.29311 -19.29284
 Alpha  occ. eigenvalues --  -19.29243 -19.29235 -19.29217 -19.29211 -19.29198
 Alpha  occ. eigenvalues --  -19.29161 -19.29133 -19.29122 -19.29121 -19.29119
 Alpha  occ. eigenvalues --  -19.29110 -19.29092 -19.29046 -19.29006 -19.28977
 Alpha  occ. eigenvalues --  -19.28906 -19.11419 -19.11410 -19.11401 -13.37534
 Alpha  occ. eigenvalues --  -13.37439 -13.37425 -10.70463 -10.70456 -10.70456
 Alpha  occ. eigenvalues --  -10.70370 -10.70363 -10.70358 -10.70356 -10.70349
 Alpha  occ. eigenvalues --  -10.70348 -10.29897 -10.29328 -10.29315 -10.29055
 Alpha  occ. eigenvalues --  -10.29012 -10.28925 -10.28249 -10.27493  -9.38741
 Alpha  occ. eigenvalues --   -7.13571  -7.13515  -7.13512  -3.23291  -3.23278
 Alpha  occ. eigenvalues --   -3.23276  -3.23275  -3.23255  -3.23230  -3.23228
 Alpha  occ. eigenvalues --   -3.23223  -3.23210  -3.22942  -3.22930  -3.22761
 Alpha  occ. eigenvalues --   -2.91746  -1.94136  -1.94106  -1.94096  -1.87702
 Alpha  occ. eigenvalues --   -1.87646  -1.87638  -1.87605  -1.87476  -1.87457
 Alpha  occ. eigenvalues --   -1.87446  -1.87437  -1.87414  -1.87259  -1.87229
 Alpha  occ. eigenvalues --   -1.87090  -1.86620  -1.86499  -1.86489  -1.86476
 Alpha  occ. eigenvalues --   -1.86442  -1.86421  -1.86333  -1.86303  -1.86294
 Alpha  occ. eigenvalues --   -1.86285  -1.86263  -1.86254  -1.86135  -1.86120
 Alpha  occ. eigenvalues --   -1.86107  -1.86094  -1.86027  -1.86009  -1.85979
 Alpha  occ. eigenvalues --   -1.85904  -1.85883  -1.85786  -1.85712  -1.85656
 Alpha  occ. eigenvalues --   -1.51221  -1.51131  -1.51122  -1.13020  -1.11245
 Alpha  occ. eigenvalues --   -1.11158  -1.11157  -1.08968  -1.08529  -1.08497
 Alpha  occ. eigenvalues --   -1.08305  -1.07555  -1.07485  -1.07478  -1.06894
 Alpha  occ. eigenvalues --   -1.06883  -1.06864  -1.06284  -1.06263  -1.05362
 Alpha  occ. eigenvalues --   -1.05357  -1.04973  -1.04967  -1.04952  -1.04236
 Alpha  occ. eigenvalues --   -1.04226  -1.04190  -1.04044  -1.04011  -1.03992
 Alpha  occ. eigenvalues --   -1.03934  -1.03918  -1.03890  -1.03760  -1.03747
 Alpha  occ. eigenvalues --   -1.03613  -1.03569  -1.03305  -1.03267  -1.03165
 Alpha  occ. eigenvalues --   -1.03146  -1.03083  -1.02998  -0.94377  -0.86686
 Alpha  occ. eigenvalues --   -0.86605  -0.86599  -0.86527  -0.86496  -0.86495
 Alpha  occ. eigenvalues --   -0.86422  -0.86403  -0.86397  -0.86385  -0.82815
 Alpha  occ. eigenvalues --   -0.79754  -0.71491  -0.69673  -0.68021  -0.64575
 Alpha  occ. eigenvalues --   -0.63945  -0.63880  -0.63861  -0.63274  -0.63259
 Alpha  occ. eigenvalues --   -0.63147  -0.62977  -0.62666  -0.62599  -0.61934
 Alpha  occ. eigenvalues --   -0.61599  -0.61579  -0.61479  -0.61221  -0.61203
 Alpha  occ. eigenvalues --   -0.61162  -0.60422  -0.59461  -0.59437  -0.59416
 Alpha  occ. eigenvalues --   -0.59370  -0.59340  -0.58697  -0.58008  -0.57977
 Alpha  occ. eigenvalues --   -0.57895  -0.57060  -0.57036  -0.56998  -0.56257
 Alpha  occ. eigenvalues --   -0.56233  -0.56091  -0.55707  -0.54866  -0.54804
 Alpha  occ. eigenvalues --   -0.54767  -0.54533  -0.54236  -0.54116  -0.54102
 Alpha  occ. eigenvalues --   -0.54027  -0.53962  -0.53268  -0.53228  -0.53094
 Alpha  occ. eigenvalues --   -0.53053  -0.52912  -0.52738  -0.52704  -0.52656
 Alpha  occ. eigenvalues --   -0.52619  -0.52515  -0.52461  -0.52428  -0.51624
 Alpha  occ. eigenvalues --   -0.51603  -0.51381  -0.51342  -0.51319  -0.51256
 Alpha  occ. eigenvalues --   -0.51187  -0.51164  -0.50993  -0.50803  -0.50623
 Alpha  occ. eigenvalues --   -0.50600  -0.50596  -0.49964  -0.49950  -0.49291
 Alpha  occ. eigenvalues --   -0.49260  -0.49244  -0.49214  -0.49160  -0.49087
 Alpha  occ. eigenvalues --   -0.48906  -0.48079  -0.48036  -0.47923  -0.47647
 Alpha  occ. eigenvalues --   -0.47394  -0.47294  -0.47248  -0.47047  -0.46980
 Alpha  occ. eigenvalues --   -0.46925  -0.46639  -0.46630  -0.46455  -0.46216
 Alpha  occ. eigenvalues --   -0.46161  -0.46123  -0.45684  -0.45107  -0.44932
 Alpha  occ. eigenvalues --   -0.44900  -0.44200  -0.44157  -0.44039  -0.43558
 Alpha  occ. eigenvalues --   -0.43324  -0.43284  -0.43145  -0.43140  -0.43100
 Alpha  occ. eigenvalues --   -0.42778  -0.42753  -0.42719  -0.42626  -0.42610
 Alpha  occ. eigenvalues --   -0.42541  -0.42503  -0.42489  -0.42315  -0.42307
 Alpha  occ. eigenvalues --   -0.42280  -0.42063  -0.41924  -0.41885  -0.41872
 Alpha  occ. eigenvalues --   -0.41275  -0.41257  -0.41206  -0.41118  -0.40603
 Alpha  occ. eigenvalues --   -0.40590  -0.40577  -0.40342  -0.39453  -0.39445
 Alpha  occ. eigenvalues --   -0.37097  -0.32577  -0.29234  -0.25055  -0.25027
 Alpha  occ. eigenvalues --   -0.23431
 Alpha virt. eigenvalues --   -0.09371  -0.09169  -0.08281  -0.08235  -0.06852
 Alpha virt. eigenvalues --   -0.06826  -0.06724  -0.04385  -0.04099  -0.04044
 Alpha virt. eigenvalues --   -0.03720  -0.03496  -0.03434  -0.03216  -0.03060

 Mulliken charges:
               1
     1  Cl  -0.899434
     2  C   -0.081881
     3  C    0.046227
     4  C   -0.081317
     5  C   -0.034749
     6  C   -0.033052
     7  C   -0.048188
     8  H    0.028557
     9  H    0.029592
    10  H    0.041489
    11  H    0.037497
    12  H    0.039581
    13  C   -0.127887
    14  C    0.036805
    15  H    0.019079
    16  H    0.036003
    17  H    0.029434
    18  O   -0.660564
    19  O   -0.658990
    20  O   -0.654544
    21  O   -0.661164
    22  W    1.728419
    23  W    1.668511
    24  W    1.680224
    25  W    1.691342
    26  W    1.670948
    27  W    1.723780
    28  W    1.612733
    29  W    1.679949
    30  O   -0.320240
    31  O   -0.365551
    32  O   -0.365792
    33  O   -0.357244
    34  O   -0.661170
    35  O   -0.669123
    36  O   -0.658832
    37  O   -0.661116
    38  O   -0.366383
    39  O   -0.366952
    40  O   -0.299171
    41  O   -0.365015
    42  O   -0.668350
    43  O   -0.661289
    44  O   -0.657353
    45  O   -0.664511
    46  O   -0.367129
    47  O   -0.320604
    48  O   -0.360081
    49  O   -0.364622
    50  W    1.667691
    51  W    1.672359
    52  W    1.681982
    53  W    1.679306
    54  O   -0.721732
    55  O   -0.704676
    56  O   -0.723251
    57  O   -0.720671
    58  O   -0.702774
    59  O   -0.723834
    60  O   -0.722067
    61  O   -0.717649
    62  O   -0.722248
    63  O   -0.704649
    64  O   -0.723258
    65  O   -0.724497
    66  O   -0.800606
    67  O   -0.799858
    68  O   -0.797366
    69  O   -0.807780
    70  K    0.865810
    71  K    0.863012
    72  K    0.862528
    73  V    1.186354
 Sum of Mulliken charges =  -1.00000

 Dipole moment (field-independent basis, Debye):
    X=             50.3285    Y=            -51.5642    Z=            -39.0138  Tot=             81.9384
 Quadrupole moment (field-independent basis, Debye-Ang):
   XX=          -1045.4321   YY=           -889.2681   ZZ=           -921.3947
   XY=            451.1209   XZ=            452.4210   YZ=           -481.4800

 Normal termination of Gaussian 16 at Mon Jun  3 09:23:21 2024.
