 Gaussian 16, Revision C.01,
 Gaussian 16:  ES64L-G16RevC.01  3-Jul-2019

 ----------------------------------------------------------------------
 # def2svp wb97xd scrf=(smd,solvent=acetonitrile) g09default scf=(xqc,m
 axcycle=64) force guess=read nosymm
 ----------------------------------------------------------------------

 ----------
 Title Card
 ----------
 Symbolic Z-matrix:
 Charge = -1 Multiplicity = 1

                          Input orientation:
 ---------------------------------------------------------------------
 Center     Atomic      Atomic             Coordinates (Angstroms)
 Number     Number       Type             X           Y           Z
 ---------------------------------------------------------------------
      1         17           0       -9.720219    8.284500   10.542190
      2          6           0       -8.405294    4.305720   12.196663
      3          6           0       -9.222132    3.986087   11.095642
      4          6           0      -10.120339    2.910499   11.229045
      5          6           0      -10.209711    2.193658   12.419170
      6          6           0       -9.393163    2.525920   13.501081
      7          6           0       -8.488887    3.583622   13.382277
      8          1           0       -7.696636    5.133480   12.127813
      9          1           0      -10.763833    2.643687   10.385794
     10          1           0      -10.922728    1.370043   12.505661
     11          1           0       -9.450915    1.955976   14.430784
     12          1           0       -7.847262    3.854119   14.224454
     13          6           0       -9.183603    4.746849    9.844424
     14          6           0       -8.444831    5.853253    9.618588
     15          1           0       -9.839043    4.379186    9.046761
     16          1           0       -8.466264    6.356427    8.651557
     17          1           0       -7.738013    6.244174   10.351380
     18          8           0       -0.972606   -1.830391    7.449192
     19          8           0       -8.370936   -1.317960    7.458151
     20          8           0       -7.003846    1.326042   10.495499
     21          8           0       -2.322206   -4.401067   10.556276
     22         74           0       -3.367767    0.717903    6.515584
     23         74           0       -5.999666   -3.851189    6.582569
     24         74           0       -3.572246    0.881763   11.390209
     25         74           0       -5.770561   -3.902735   11.458884
     26         74           0       -2.452745   -2.587327    6.366025
     27         74           0       -6.892572   -0.548131    6.342994
     28         74           0       -6.770106   -0.273558   11.600648
     29         74           0       -2.559011   -2.745733   11.629274
     30          8           0       -3.119370    1.917381    5.354796
     31          8           0       -6.146832   -5.101823    5.442219
     32          8           0       -2.645522    1.726878   12.536662
     33          8           0       -6.680313   -4.721690   12.635031
     34          8           0       -2.656072   -0.905379    5.587231
     35          8           0       -6.685752   -2.282972    5.622955
     36          8           0       -5.264059    0.536359   12.364992
     37          8           0       -4.055591   -3.553843   12.407157
     38          8           0        0.353476   -0.096298    9.265200
     39          8           0       -9.700020   -2.990712    9.318859
     40          8           0       -6.384593    3.405979    8.685532
     41          8           0       -2.964499   -6.493788    8.745337
     42          8           0       -1.749986    0.727814    7.489879
     43          8           0       -7.602016   -3.879462    7.554094
     44          8           0       -4.476773    2.191726   10.423382
     45          8           0       -4.860113   -5.246633   10.512113
     46          8           0       -1.630395   -3.520607    5.207287
     47          8           0       -7.764239    0.256328    5.141795
     48          8           0       -7.981608   -0.172409   12.785987
     49          8           0       -1.329270   -2.875493   12.794918
     50         74           0       -1.213709   -0.595135    8.836787
     51         74           0       -8.133440   -2.502397    8.875359
     52         74           0       -5.892323    1.837020    9.054495
     53         74           0       -3.456077   -4.920016    9.157724
     54          8           0       -4.221149   -3.124805    6.064057
     55          8           0       -5.121061   -0.052912    6.018223
     56          8           0       -6.158628   -2.027496   11.923770
     57          8           0       -3.150344   -0.995255   11.922764
     58          8           0       -4.338465    1.581058    7.853307
     59          8           0       -4.999013   -4.704696    7.920875
     60          8           0       -2.284219    0.547303   10.073497
     61          8           0       -7.054039   -3.623102   10.130547
     62          8           0       -2.566066   -3.916365    7.850297
     63          8           0       -6.793345    0.781910    7.801414
     64          8           0       -7.805651   -1.177830   10.160322
     65          8           0       -1.538296   -1.897964   10.149468
     66          8           0       -3.342401   -1.169795    8.013059
     67          8           0       -6.002114   -1.968858    8.037033
     68          8           0       -5.092670   -0.221564    9.947874
     69          8           0       -4.229615   -2.858097    9.975164
     70         19           0       -3.226834   -6.153437    5.648280
     71         19           0       -0.118891   -0.039409   12.325344
     72         19           0       -9.300968   -2.822361   12.391683
     73         23           0       -4.668773   -1.550384    8.990519
 ---------------------------------------------------------------------

 SCF Done:  E(UwB97XD) =  -7327.70232940     A.U. after   32 cycles

 Alpha  occ. eigenvalues --  -19.24661 -18.94009 -18.92923 -18.92881 -13.36516
 Alpha  occ. eigenvalues --  -13.36508 -13.36429 -10.69443 -10.69439 -10.69438
 Alpha  occ. eigenvalues --  -10.69437 -10.69432 -10.69427 -10.69357 -10.69352
 Alpha  occ. eigenvalues --  -10.69352 -10.33086 -10.32333 -10.32035 -10.31051
 Alpha  occ. eigenvalues --  -10.31019 -10.31014 -10.30580 -10.30553  -9.52528
 Alpha  occ. eigenvalues --   -7.27414  -7.27069  -7.27066  -3.21075  -3.21062
 Alpha  occ. eigenvalues --   -3.21043  -3.21004  -3.21003  -3.20993  -3.20983
 Alpha  occ. eigenvalues --   -3.20974  -3.20961  -3.20834  -3.20824  -3.20797
 Alpha  occ. eigenvalues --   -2.78752  -1.85321  -1.85271  -1.85262  -1.85222
 Alpha  occ. eigenvalues --   -1.85122  -1.85062  -1.85048  -1.85020  -1.85008
 Alpha  occ. eigenvalues --   -1.84997  -1.84978  -1.84925  -1.84378  -1.84264
 Alpha  occ. eigenvalues --   -1.84256  -1.84236  -1.84199  -1.84189  -1.84134
 Alpha  occ. eigenvalues --   -1.84107  -1.84086  -1.84073  -1.84045  -1.84038
 Alpha  occ. eigenvalues --   -1.83933  -1.83898  -1.83872  -1.83866  -1.83842
 Alpha  occ. eigenvalues --   -1.83807  -1.83779  -1.83771  -1.83762  -1.83670
 Alpha  occ. eigenvalues --   -1.83663  -1.83646  -1.81920  -1.81583  -1.81562
 Alpha  occ. eigenvalues --   -1.50218  -1.50214  -1.50140  -1.08608  -1.06985
 Alpha  occ. eigenvalues --   -1.06946  -1.06907  -1.05992  -1.05986  -1.05963
 Alpha  occ. eigenvalues --   -1.04568  -1.04560  -1.04552  -1.03940  -1.03934
 Alpha  occ. eigenvalues --   -1.03690  -1.03341  -1.03314  -1.03292  -1.03058
 Alpha  occ. eigenvalues --   -1.03044  -1.02248  -1.02222  -1.02216  -1.02095
 Alpha  occ. eigenvalues --   -1.02027  -1.02003  -1.01911  -1.01900  -1.01800
 Alpha  occ. eigenvalues --   -1.01763  -1.01743  -1.01610  -1.01579  -1.01566
 Alpha  occ. eigenvalues --   -1.01307  -1.00823  -1.00796  -1.00747  -1.00741
 Alpha  occ. eigenvalues --   -0.99989  -0.99929  -0.99871  -0.96226  -0.89350
 Alpha  occ. eigenvalues --   -0.85663  -0.85658  -0.85592  -0.85521  -0.85506
 Alpha  occ. eigenvalues --   -0.85505  -0.85476  -0.85434  -0.85427  -0.84303
 Alpha  occ. eigenvalues --   -0.82494  -0.80999  -0.71948  -0.69663  -0.65127
 Alpha  occ. eigenvalues --   -0.62283  -0.61674  -0.61618  -0.61592  -0.60703
 Alpha  occ. eigenvalues --   -0.58968  -0.58941  -0.58932  -0.58894  -0.58823
 Alpha  occ. eigenvalues --   -0.58732  -0.58706  -0.58669  -0.58537  -0.57349
 Alpha  occ. eigenvalues --   -0.57316  -0.57281  -0.56995  -0.56797  -0.56480
 Alpha  occ. eigenvalues --   -0.56436  -0.56394  -0.56001  -0.55847  -0.55364
 Alpha  occ. eigenvalues --   -0.55356  -0.55318  -0.54428  -0.54198  -0.54173
 Alpha  occ. eigenvalues --   -0.54019  -0.53643  -0.53588  -0.53573  -0.52792
 Alpha  occ. eigenvalues --   -0.52655  -0.52596  -0.52484  -0.52451  -0.51491
 Alpha  occ. eigenvalues --   -0.51479  -0.51469  -0.51386  -0.51329  -0.50819
 Alpha  occ. eigenvalues --   -0.50556  -0.50532  -0.50482  -0.50391  -0.50336
 Alpha  occ. eigenvalues --   -0.50280  -0.50096  -0.50053  -0.50035  -0.49783
 Alpha  occ. eigenvalues --   -0.49684  -0.49654  -0.49506  -0.49484  -0.49301
 Alpha  occ. eigenvalues --   -0.49257  -0.49193  -0.49081  -0.49020  -0.48953
 Alpha  occ. eigenvalues --   -0.48728  -0.48553  -0.48533  -0.48481  -0.47743
 Alpha  occ. eigenvalues --   -0.47718  -0.47249  -0.46486  -0.46049  -0.46030
 Alpha  occ. eigenvalues --   -0.45881  -0.45869  -0.45759  -0.45632  -0.45218
 Alpha  occ. eigenvalues --   -0.45141  -0.45131  -0.44875  -0.44696  -0.44522
 Alpha  occ. eigenvalues --   -0.44489  -0.44460  -0.44283  -0.44272  -0.44256
 Alpha  occ. eigenvalues --   -0.43411  -0.43185  -0.42573  -0.42542  -0.42476
 Alpha  occ. eigenvalues --   -0.42308  -0.42175  -0.42160  -0.42155  -0.41636
 Alpha  occ. eigenvalues --   -0.41619  -0.41579  -0.41040  -0.40998  -0.40800
 Alpha  occ. eigenvalues --   -0.40779  -0.40774  -0.40447  -0.40438  -0.40405
 Alpha  occ. eigenvalues --   -0.40233  -0.40205  -0.40188  -0.40146  -0.39887
 Alpha  occ. eigenvalues --   -0.39361  -0.39284  -0.39269  -0.39176  -0.39056
 Alpha  occ. eigenvalues --   -0.38983  -0.38951  -0.38864  -0.38765  -0.38726
 Alpha  occ. eigenvalues --   -0.38348  -0.38323  -0.38290  -0.38186  -0.37211
 Alpha  occ. eigenvalues --   -0.37193  -0.34719  -0.34689  -0.33702  -0.30506
 Alpha  occ. eigenvalues --   -0.25709
 Alpha virt. eigenvalues --   -0.11972  -0.06148  -0.06102  -0.04694  -0.04650
 Alpha virt. eigenvalues --   -0.04537  -0.01519  -0.01381  -0.01320  -0.01074
 Alpha virt. eigenvalues --   -0.00903  -0.00871  -0.00833  -0.00149  -0.00077

  Beta  occ. eigenvalues -- -197.10741-129.99109-129.99108-129.99026-101.62525
  Beta  occ. eigenvalues --  -22.43172 -19.28507 -19.28504 -19.28448 -19.28431
  Beta  occ. eigenvalues --  -19.28380 -19.28371 -19.28359 -19.28346 -19.28317
  Beta  occ. eigenvalues --  -19.28267 -19.28228 -19.28147 -19.26992 -19.26962
  Beta  occ. eigenvalues --  -19.26950 -19.26930 -19.26923 -19.26913 -19.26877
  Beta  occ. eigenvalues --  -19.26871 -19.26869 -19.26857 -19.26855 -19.26849
  Beta  occ. eigenvalues --  -19.26841 -19.26841 -19.26833 -19.26816 -19.26813
  Beta  occ. eigenvalues --  -19.26801 -19.26800 -19.26784 -19.26774 -19.26735
  Beta  occ. eigenvalues --  -19.26687 -19.26650 -19.24724 -19.24682 -19.24650
  Beta  occ. eigenvalues --  -19.24636 -18.93664 -18.91481 -18.91399 -13.36516
  Beta  occ. eigenvalues --  -13.36508 -13.36429 -10.69443 -10.69439 -10.69438
  Beta  occ. eigenvalues --  -10.69437 -10.69432 -10.69427 -10.69357 -10.69352
  Beta  occ. eigenvalues --  -10.69352 -10.33369 -10.32449 -10.31982 -10.31151
  Beta  occ. eigenvalues --  -10.31140 -10.31121 -10.30521 -10.30493  -9.52978
  Beta  occ. eigenvalues --   -7.28827  -7.27377  -7.27374  -3.21069  -3.21060
  Beta  occ. eigenvalues --   -3.21043  -3.21003  -3.20997  -3.20987  -3.20977
  Beta  occ. eigenvalues --   -3.20968  -3.20955  -3.20833  -3.20820  -3.20791
  Beta  occ. eigenvalues --   -2.74692  -1.85315  -1.85266  -1.85257  -1.85214
  Beta  occ. eigenvalues --   -1.85117  -1.85056  -1.85043  -1.85014  -1.84999
  Beta  occ. eigenvalues --   -1.84988  -1.84972  -1.84917  -1.84375  -1.84262
  Beta  occ. eigenvalues --   -1.84253  -1.84234  -1.84196  -1.84186  -1.84131
  Beta  occ. eigenvalues --   -1.84105  -1.84083  -1.84071  -1.84041  -1.84035
  Beta  occ. eigenvalues --   -1.83930  -1.83894  -1.83869  -1.83863  -1.83839
  Beta  occ. eigenvalues --   -1.83805  -1.83776  -1.83768  -1.83758  -1.83668
  Beta  occ. eigenvalues --   -1.83660  -1.83643  -1.80583  -1.75916  -1.75738
  Beta  occ. eigenvalues --   -1.50218  -1.50214  -1.50140  -1.08591  -1.06964
  Beta  occ. eigenvalues --   -1.06926  -1.06880  -1.05989  -1.05984  -1.05961
  Beta  occ. eigenvalues --   -1.04569  -1.04561  -1.04551  -1.03940  -1.03935
  Beta  occ. eigenvalues --   -1.03623  -1.03308  -1.03276  -1.03261  -1.03056
  Beta  occ. eigenvalues --   -1.03035  -1.02229  -1.02203  -1.02193  -1.02088
  Beta  occ. eigenvalues --   -1.02023  -1.01990  -1.01906  -1.01886  -1.01795
  Beta  occ. eigenvalues --   -1.01761  -1.01739  -1.01604  -1.01576  -1.01550
  Beta  occ. eigenvalues --   -1.01307  -1.00813  -1.00768  -1.00747  -1.00737
  Beta  occ. eigenvalues --   -0.99852  -0.99788  -0.99750  -0.96454  -0.90026
  Beta  occ. eigenvalues --   -0.85663  -0.85658  -0.85592  -0.85521  -0.85506
  Beta  occ. eigenvalues --   -0.85505  -0.85476  -0.85434  -0.85427  -0.84613
  Beta  occ. eigenvalues --   -0.84377  -0.82727  -0.72205  -0.69785  -0.65373
  Beta  occ. eigenvalues --   -0.62283  -0.61674  -0.61618  -0.61592  -0.60906
  Beta  occ. eigenvalues --   -0.58962  -0.58939  -0.58931  -0.58806  -0.58750
  Beta  occ. eigenvalues --   -0.58716  -0.58693  -0.58650  -0.58537  -0.57328
  Beta  occ. eigenvalues --   -0.57159  -0.57113  -0.57015  -0.56910  -0.56482
  Beta  occ. eigenvalues --   -0.56405  -0.56359  -0.55802  -0.55591  -0.55343
  Beta  occ. eigenvalues --   -0.55335  -0.55320  -0.54617  -0.54186  -0.54163
  Beta  occ. eigenvalues --   -0.54005  -0.53611  -0.53570  -0.53529  -0.52860
  Beta  occ. eigenvalues --   -0.52656  -0.52583  -0.52463  -0.52446  -0.51476
  Beta  occ. eigenvalues --   -0.51452  -0.51450  -0.51326  -0.51270  -0.51013
  Beta  occ. eigenvalues --   -0.50544  -0.50467  -0.50456  -0.50334  -0.50240
  Beta  occ. eigenvalues --   -0.50170  -0.50063  -0.50053  -0.50005  -0.49731
  Beta  occ. eigenvalues --   -0.49663  -0.49622  -0.49496  -0.49474  -0.49299
  Beta  occ. eigenvalues --   -0.49233  -0.49192  -0.49044  -0.49000  -0.48928
  Beta  occ. eigenvalues --   -0.48719  -0.48552  -0.48528  -0.48473  -0.47933
  Beta  occ. eigenvalues --   -0.47699  -0.47664  -0.46054  -0.45902  -0.45871
  Beta  occ. eigenvalues --   -0.45804  -0.45676  -0.45572  -0.45217  -0.45161
  Beta  occ. eigenvalues --   -0.45139  -0.45056  -0.44874  -0.44694  -0.44497
  Beta  occ. eigenvalues --   -0.44478  -0.44423  -0.44274  -0.44234  -0.44216
  Beta  occ. eigenvalues --   -0.43405  -0.43288  -0.42524  -0.42485  -0.42440
  Beta  occ. eigenvalues --   -0.42258  -0.42239  -0.42131  -0.42114  -0.41659
  Beta  occ. eigenvalues --   -0.41613  -0.41559  -0.41470  -0.41043  -0.40965
  Beta  occ. eigenvalues --   -0.40770  -0.40736  -0.40712  -0.40432  -0.40426
  Beta  occ. eigenvalues --   -0.40389  -0.40187  -0.40176  -0.40158  -0.39830
  Beta  occ. eigenvalues --   -0.39668  -0.39358  -0.39189  -0.39137  -0.39136
  Beta  occ. eigenvalues --   -0.38950  -0.38923  -0.38866  -0.38744  -0.38715
  Beta  occ. eigenvalues --   -0.38676  -0.38340  -0.38315  -0.38281  -0.37727
  Beta  occ. eigenvalues --   -0.37212  -0.37188  -0.35657  -0.35625  -0.33987
  Beta  occ. eigenvalues --   -0.30893
  Beta virt. eigenvalues --   -0.06147  -0.06102  -0.04693  -0.04649  -0.04536
  Beta virt. eigenvalues --   -0.01515  -0.01376  -0.01314  -0.01068  -0.00898
  Beta virt. eigenvalues --   -0.00867  -0.00828  -0.00140  -0.00066  -0.00036

 Mulliken charges and spin densities:
               1          2
     1  Cl  -0.351203  -0.607558
     2  C   -0.036174  -0.097009
     3  C    0.009779   0.059893
     4  C   -0.035358  -0.092680
     5  C   -0.032532   0.058726
     6  C    0.008588  -0.115714
     7  C   -0.046536   0.059319
     8  H    0.049050   0.004166
     9  H    0.051209   0.003966
    10  H    0.056576  -0.002078
    11  H    0.057756   0.005078
    12  H    0.054360  -0.002077
    13  C    0.004427  -0.263602
    14  C   -0.036687  -0.020248
    15  H    0.075072   0.010855
    16  H    0.095264   0.000978
    17  H    0.090796  -0.000692
    18  O   -0.669488  -0.000553
    19  O   -0.667891  -0.000502
    20  O   -0.665098  -0.001362
    21  O   -0.670190  -0.000528
    22  W    1.711627   0.000355
    23  W    1.654087   0.000491
    24  W    1.667474   0.000171
    25  W    1.677113   0.000217
    26  W    1.657060   0.002762
    27  W    1.705774   0.002488
    28  W    1.604227   0.003318
    29  W    1.665672   0.002880
    30  O   -0.350217  -0.000527
    31  O   -0.393980  -0.000566
    32  O   -0.394449  -0.000620
    33  O   -0.386150  -0.000562
    34  O   -0.669594  -0.000318
    35  O   -0.676478  -0.000053
    36  O   -0.667794  -0.000164
    37  O   -0.670076  -0.000238
    38  O   -0.396343   0.002064
    39  O   -0.397143   0.002112
    40  O   -0.341278   0.000588
    41  O   -0.395176   0.002097
    42  O   -0.675877   0.000077
    43  O   -0.669915   0.000177
    44  O   -0.666045   0.000294
    45  O   -0.672768   0.000118
    46  O   -0.397151   0.002319
    47  O   -0.352402   0.002194
    48  O   -0.393541   0.001851
    49  O   -0.394858   0.002369
    50  W    1.653654   0.002810
    51  W    1.657965   0.002720
    52  W    1.675037   0.003751
    53  W    1.664585   0.002659
    54  O   -0.719690   0.000090
    55  O   -0.702961  -0.000000
    56  O   -0.720132   0.000125
    57  O   -0.718739   0.000058
    58  O   -0.700671   0.000082
    59  O   -0.721161   0.000160
    60  O   -0.719597   0.000214
    61  O   -0.715443   0.000204
    62  O   -0.720636  -0.000175
    63  O   -0.703294  -0.000057
    64  O   -0.722328  -0.000187
    65  O   -0.722614  -0.000201
    66  O   -0.882948   0.005225
    67  O   -0.882921   0.007336
    68  O   -0.880418   0.007284
    69  O   -0.887609   0.006640
    70  K    0.852182   0.000197
    71  K    0.849180   0.000225
    72  K    0.848704   0.000225
    73  V    1.196338   0.936344
 Sum of Mulliken charges =  -1.00000   0.00000

 Dipole moment (field-independent basis, Debye):
    X=             27.8198    Y=            -13.8342    Z=            -30.8995  Tot=             43.8190
 Quadrupole moment (field-independent basis, Debye-Ang):
   XX=           -757.1506   YY=           -710.0779   ZZ=           -786.3135
   XY=            127.3273   XZ=            173.2871   YZ=            -94.7385

 Normal termination of Gaussian 16 at Mon Jun  3 09:12:28 2024.
