 Gaussian 16, Revision C.01,
 Gaussian 16:  ES64L-G16RevC.01  3-Jul-2019

 ----------------------------------------------------------------------
 # def2svp wb97xd scrf=(smd,solvent=acetonitrile) g09default scf=(xqc,m
 axcycle=64) force guess=read nosymm
 ----------------------------------------------------------------------

 ----------
 Title Card
 ----------
 Symbolic Z-matrix:
 Charge = -1 Multiplicity = 1

                          Input orientation:
 ---------------------------------------------------------------------
 Center     Atomic      Atomic             Coordinates (Angstroms)
 Number     Number       Type             X           Y           Z
 ---------------------------------------------------------------------
      1         17           0       -9.903812    7.656255   10.401760
      2          6           0       -8.314686    4.252291   12.238323
      3          6           0       -9.067149    3.932081   11.097924
      4          6           0      -10.008437    2.892491   11.197429
      5          6           0      -10.184603    2.193169   12.389576
      6          6           0       -9.427728    2.520479   13.511615
      7          6           0       -8.488294    3.550834   13.430449
      8          1           0       -7.576218    5.057630   12.199021
      9          1           0      -10.596934    2.628598   10.316279
     10          1           0      -10.912114    1.379066   12.433975
     11          1           0       -9.558849    1.968617   14.446358
     12          1           0       -7.883825    3.808581   14.302832
     13          6           0       -8.911732    4.622058    9.816347
     14          6           0       -8.086785    5.645596    9.573886
     15          1           0       -9.610322    4.316154    9.031152
     16          1           0       -8.056164    6.124208    8.594359
     17          1           0       -7.383694    6.038774   10.311260
     18          8           0       -1.012493   -1.759695    7.456283
     19          8           0       -8.407931   -1.328234    7.461176
     20          8           0       -7.059805    1.337278   10.497360
     21          8           0       -2.339067   -4.347633   10.566365
     22         74           0       -3.432978    0.751318    6.512816
     23         74           0       -6.013264   -3.828603    6.591521
     24         74           0       -3.635120    0.922900   11.396827
     25         74           0       -5.777753   -3.868194   11.465809
     26         74           0       -2.469604   -2.546624    6.373783
     27         74           0       -6.949425   -0.530464    6.349332
     28         74           0       -6.833142   -0.253102   11.602431
     29         74           0       -2.571027   -2.690492   11.631574
     30          8           0       -3.207671    1.956348    5.346606
     31          8           0       -6.136004   -5.090610    5.460722
     32          8           0       -2.701938    1.768933   12.537462
     33          8           0       -6.702900   -4.678763   12.639146
     34          8           0       -2.693644   -0.863189    5.604279
     35          8           0       -6.719564   -2.270763    5.645872
     36          8           0       -5.323754    0.570786   12.353927
     37          8           0       -4.068081   -3.513885   12.399619
     38          8           0        0.299651   -0.005282    9.286990
     39          8           0       -9.722033   -3.013951    9.348856
     40          8           0       -6.436013    3.419084    8.647243
     41          8           0       -2.963033   -6.450446    8.735357
     42          8           0       -1.814224    0.771347    7.490911
     43          8           0       -7.614343   -3.862160    7.565171
     44          8           0       -4.554562    2.216745   10.422776
     45          8           0       -4.855179   -5.203042   10.520750
     46          8           0       -1.650641   -3.482123    5.217855
     47          8           0       -7.819357    0.272701    5.141856
     48          8           0       -8.039138   -0.186011   12.790835
     49          8           0       -1.339553   -2.789206   12.797420
     50         74           0       -1.254959   -0.522506    8.843544
     51         74           0       -8.170355   -2.504412    8.886280
     52         74           0       -5.956200    1.858688    9.050356
     53         74           0       -3.459323   -4.883413    9.164456
     54          8           0       -4.243113   -3.077418    6.088533
     55          8           0       -5.171141   -0.048149    6.036159
     56          8           0       -6.171610   -1.993618   11.905499
     57          8           0       -3.209055   -0.955303   11.912071
     58          8           0       -4.401842    1.591272    7.863837
     59          8           0       -5.006704   -4.650036    7.946840
     60          8           0       -2.360271    0.587641   10.063580
     61          8           0       -7.051740   -3.594783   10.123183
     62          8           0       -2.574553   -3.860089    7.867389
     63          8           0       -6.856673    0.782733    7.808976
     64          8           0       -7.843049   -1.163382   10.155280
     65          8           0       -1.578607   -1.843426   10.145794
     66          8           0       -3.401120   -1.127424    8.024503
     67          8           0       -6.018643   -1.948570    8.052082
     68          8           0       -5.130379   -0.206750    9.942269
     69          8           0       -4.260315   -2.808898    9.973736
     70         19           0       -3.242646   -6.083725    5.691786
     71         19           0       -0.183997    0.023471   12.323777
     72         19           0       -9.232022   -2.922668   12.378618
     73         23           0       -4.705528   -1.519490    8.995856
 ---------------------------------------------------------------------

 SCF Done:  E(RwB97XD) =  -7327.69764366     A.U. after   13 cycles

 Alpha  occ. eigenvalues -- -197.27248-129.99968-129.99944-129.99856-101.47829
 Alpha  occ. eigenvalues --  -22.60563 -19.32540 -19.32538 -19.32534 -19.32510
 Alpha  occ. eigenvalues --  -19.30622 -19.30604 -19.30601 -19.30599 -19.30580
 Alpha  occ. eigenvalues --  -19.30573 -19.30544 -19.30523 -19.30475 -19.30180
 Alpha  occ. eigenvalues --  -19.30142 -19.29999 -19.29234 -19.29229 -19.29223
 Alpha  occ. eigenvalues --  -19.29205 -19.29203 -19.29199 -19.29168 -19.29156
 Alpha  occ. eigenvalues --  -19.29122 -19.29105 -19.29104 -19.29053 -19.29045
 Alpha  occ. eigenvalues --  -19.29032 -19.29017 -19.29013 -19.29005 -19.28993
 Alpha  occ. eigenvalues --  -19.28976 -19.28963 -19.28941 -19.28878 -19.28848
 Alpha  occ. eigenvalues --  -19.28737 -19.09494 -19.09484 -19.09483 -13.37364
 Alpha  occ. eigenvalues --  -13.37339 -13.37239 -10.70295 -10.70287 -10.70286
 Alpha  occ. eigenvalues --  -10.70271 -10.70262 -10.70262 -10.70172 -10.70163
 Alpha  occ. eigenvalues --  -10.70161 -10.29442 -10.29190 -10.29095 -10.28825
 Alpha  occ. eigenvalues --  -10.28680 -10.28657 -10.27636 -10.26489  -9.38312
 Alpha  occ. eigenvalues --   -7.13142  -7.13087  -7.13077  -3.23189  -3.23180
 Alpha  occ. eigenvalues --   -3.23178  -3.23168  -3.23157  -3.23133  -3.23123
 Alpha  occ. eigenvalues --   -3.23107  -3.23060  -3.22846  -3.22820  -3.22551
 Alpha  occ. eigenvalues --   -2.90300  -1.92835  -1.92801  -1.92775  -1.87595
 Alpha  occ. eigenvalues --   -1.87541  -1.87526  -1.87470  -1.87372  -1.87349
 Alpha  occ. eigenvalues --   -1.87345  -1.87331  -1.87284  -1.87089  -1.87047
 Alpha  occ. eigenvalues --   -1.86908  -1.86522  -1.86405  -1.86395  -1.86380
 Alpha  occ. eigenvalues --   -1.86346  -1.86313  -1.86237  -1.86212  -1.86197
 Alpha  occ. eigenvalues --   -1.86185  -1.86154  -1.86135  -1.86051  -1.86027
 Alpha  occ. eigenvalues --   -1.86015  -1.85989  -1.85947  -1.85899  -1.85885
 Alpha  occ. eigenvalues --   -1.85812  -1.85795  -1.85696  -1.85551  -1.85472
 Alpha  occ. eigenvalues --   -1.51069  -1.51046  -1.50948  -1.12429  -1.10600
 Alpha  occ. eigenvalues --   -1.10507  -1.10495  -1.08591  -1.08400  -1.08375
 Alpha  occ. eigenvalues --   -1.08193  -1.07211  -1.07150  -1.07141  -1.06806
 Alpha  occ. eigenvalues --   -1.06793  -1.06761  -1.06198  -1.06181  -1.05304
 Alpha  occ. eigenvalues --   -1.05294  -1.04897  -1.04888  -1.04862  -1.04169
 Alpha  occ. eigenvalues --   -1.04150  -1.04117  -1.03979  -1.03957  -1.03938
 Alpha  occ. eigenvalues --   -1.03868  -1.03857  -1.03818  -1.03688  -1.03664
 Alpha  occ. eigenvalues --   -1.03534  -1.03487  -1.03112  -1.03092  -1.03077
 Alpha  occ. eigenvalues --   -1.03053  -1.02991  -1.02862  -0.94145  -0.86564
 Alpha  occ. eigenvalues --   -0.86543  -0.86456  -0.86351  -0.86346  -0.86327
 Alpha  occ. eigenvalues --   -0.86322  -0.86233  -0.86222  -0.86202  -0.82548
 Alpha  occ. eigenvalues --   -0.79533  -0.71084  -0.69409  -0.67818  -0.64530
 Alpha  occ. eigenvalues --   -0.63876  -0.63816  -0.63789  -0.62765  -0.62749
 Alpha  occ. eigenvalues --   -0.62701  -0.62667  -0.62268  -0.62233  -0.61426
 Alpha  occ. eigenvalues --   -0.61410  -0.61406  -0.61299  -0.61206  -0.61188
 Alpha  occ. eigenvalues --   -0.61153  -0.60340  -0.59277  -0.59203  -0.59131
 Alpha  occ. eigenvalues --   -0.59076  -0.59062  -0.58434  -0.57930  -0.57907
 Alpha  occ. eigenvalues --   -0.57834  -0.56703  -0.56668  -0.56612  -0.56097
 Alpha  occ. eigenvalues --   -0.56074  -0.55951  -0.55583  -0.54789  -0.54713
 Alpha  occ. eigenvalues --   -0.54703  -0.54283  -0.54187  -0.54063  -0.54041
 Alpha  occ. eigenvalues --   -0.53857  -0.53799  -0.53361  -0.53344  -0.52969
 Alpha  occ. eigenvalues --   -0.52951  -0.52823  -0.52699  -0.52660  -0.52639
 Alpha  occ. eigenvalues --   -0.52628  -0.52494  -0.52453  -0.52233  -0.51358
 Alpha  occ. eigenvalues --   -0.51334  -0.51173  -0.51143  -0.51081  -0.51019
 Alpha  occ. eigenvalues --   -0.51008  -0.50920  -0.50899  -0.50820  -0.50640
 Alpha  occ. eigenvalues --   -0.50600  -0.50557  -0.49875  -0.49868  -0.49202
 Alpha  occ. eigenvalues --   -0.49179  -0.49071  -0.49058  -0.49033  -0.49000
 Alpha  occ. eigenvalues --   -0.48663  -0.47834  -0.47794  -0.47697  -0.47338
 Alpha  occ. eigenvalues --   -0.47249  -0.47210  -0.47142  -0.46901  -0.46808
 Alpha  occ. eigenvalues --   -0.46728  -0.46442  -0.46418  -0.46336  -0.45851
 Alpha  occ. eigenvalues --   -0.45801  -0.45749  -0.45379  -0.44979  -0.44789
 Alpha  occ. eigenvalues --   -0.44749  -0.44010  -0.43965  -0.43843  -0.43249
 Alpha  occ. eigenvalues --   -0.43240  -0.43174  -0.43030  -0.43020  -0.42971
 Alpha  occ. eigenvalues --   -0.42612  -0.42600  -0.42589  -0.42476  -0.42439
 Alpha  occ. eigenvalues --   -0.42401  -0.42378  -0.42328  -0.42238  -0.42214
 Alpha  occ. eigenvalues --   -0.42178  -0.41972  -0.41865  -0.41782  -0.41768
 Alpha  occ. eigenvalues --   -0.41171  -0.41155  -0.40997  -0.40816  -0.40497
 Alpha  occ. eigenvalues --   -0.40460  -0.40423  -0.40093  -0.39351  -0.39324
 Alpha  occ. eigenvalues --   -0.36594  -0.32323  -0.29011  -0.24780  -0.24706
 Alpha  occ. eigenvalues --   -0.22358
 Alpha virt. eigenvalues --   -0.08284  -0.08219  -0.07667  -0.07546  -0.06789
 Alpha virt. eigenvalues --   -0.06770  -0.06678  -0.03588  -0.03505  -0.03442
 Alpha virt. eigenvalues --   -0.03221  -0.03033  -0.02985  -0.02867  -0.02443

 Mulliken charges:
               1
     1  Cl  -0.900940
     2  C   -0.090791
     3  C    0.044002
     4  C   -0.082529
     5  C   -0.033636
     6  C   -0.035887
     7  C   -0.050298
     8  H    0.024355
     9  H    0.025715
    10  H    0.038562
    11  H    0.035225
    12  H    0.037363
    13  C   -0.075974
    14  C    0.044994
    15  H    0.005632
    16  H    0.027611
    17  H    0.030902
    18  O   -0.660958
    19  O   -0.658971
    20  O   -0.652400
    21  O   -0.660730
    22  W    1.734087
    23  W    1.672717
    24  W    1.683767
    25  W    1.694178
    26  W    1.669710
    27  W    1.725335
    28  W    1.615071
    29  W    1.680882
    30  O   -0.326114
    31  O   -0.369812
    32  O   -0.369224
    33  O   -0.368469
    34  O   -0.661542
    35  O   -0.669010
    36  O   -0.659809
    37  O   -0.661972
    38  O   -0.367378
    39  O   -0.367836
    40  O   -0.287903
    41  O   -0.368266
    42  O   -0.668356
    43  O   -0.661173
    44  O   -0.657206
    45  O   -0.663383
    46  O   -0.367941
    47  O   -0.324651
    48  O   -0.355220
    49  O   -0.368048
    50  W    1.666993
    51  W    1.670322
    52  W    1.668346
    53  W    1.678045
    54  O   -0.721679
    55  O   -0.704487
    56  O   -0.723732
    57  O   -0.719080
    58  O   -0.701675
    59  O   -0.724195
    60  O   -0.722565
    61  O   -0.719972
    62  O   -0.721845
    63  O   -0.705975
    64  O   -0.721251
    65  O   -0.725153
    66  O   -0.798967
    67  O   -0.798005
    68  O   -0.795466
    69  O   -0.810114
    70  K    0.858990
    71  K    0.858410
    72  K    0.853977
    73  V    1.215396
 Sum of Mulliken charges =  -1.00000

 Dipole moment (field-independent basis, Debye):
    X=             51.2667    Y=            -48.1426    Z=            -38.5642  Tot=             80.2071
 Quadrupole moment (field-independent basis, Debye-Ang):
   XX=          -1065.7214   YY=           -843.8998   ZZ=           -914.2606
   XY=            427.3906   XZ=            458.6777   YZ=           -444.1276

 Normal termination of Gaussian 16 at Sat Jun  1 14:50:28 2024.
