 Gaussian 16, Revision C.01,
 Gaussian 16:  ES64L-G16RevC.01  3-Jul-2019

 ----------------------------------------------------------------------
 # def2svp wb97xd scrf=(smd,solvent=acetonitrile) g09default scf=(xqc,m
 axcycle=64) force guess=read nosymm
 ----------------------------------------------------------------------

 ----------
 Title Card
 ----------
 Symbolic Z-matrix:
 Charge = -1 Multiplicity = 1

                          Input orientation:
 ---------------------------------------------------------------------
 Center     Atomic      Atomic             Coordinates (Angstroms)
 Number     Number       Type             X           Y           Z
 ---------------------------------------------------------------------
      1         17           0       -9.903812    7.656255   10.401760
      2          6           0       -8.314686    4.252291   12.238323
      3          6           0       -9.067149    3.932081   11.097924
      4          6           0      -10.008437    2.892491   11.197429
      5          6           0      -10.184603    2.193169   12.389576
      6          6           0       -9.427728    2.520479   13.511615
      7          6           0       -8.488294    3.550834   13.430449
      8          1           0       -7.576218    5.057630   12.199021
      9          1           0      -10.596934    2.628598   10.316279
     10          1           0      -10.912114    1.379066   12.433975
     11          1           0       -9.558849    1.968617   14.446358
     12          1           0       -7.883825    3.808581   14.302832
     13          6           0       -8.911732    4.622058    9.816347
     14          6           0       -8.086785    5.645596    9.573886
     15          1           0       -9.610322    4.316154    9.031152
     16          1           0       -8.056164    6.124208    8.594359
     17          1           0       -7.383694    6.038774   10.311260
     18          8           0       -1.012493   -1.759695    7.456283
     19          8           0       -8.407931   -1.328234    7.461176
     20          8           0       -7.059805    1.337278   10.497360
     21          8           0       -2.339067   -4.347633   10.566365
     22         74           0       -3.432978    0.751318    6.512816
     23         74           0       -6.013264   -3.828603    6.591521
     24         74           0       -3.635120    0.922900   11.396827
     25         74           0       -5.777753   -3.868194   11.465809
     26         74           0       -2.469604   -2.546624    6.373783
     27         74           0       -6.949425   -0.530464    6.349332
     28         74           0       -6.833142   -0.253102   11.602431
     29         74           0       -2.571027   -2.690492   11.631574
     30          8           0       -3.207671    1.956348    5.346606
     31          8           0       -6.136004   -5.090610    5.460722
     32          8           0       -2.701938    1.768933   12.537462
     33          8           0       -6.702900   -4.678763   12.639146
     34          8           0       -2.693644   -0.863189    5.604279
     35          8           0       -6.719564   -2.270763    5.645872
     36          8           0       -5.323754    0.570786   12.353927
     37          8           0       -4.068081   -3.513885   12.399619
     38          8           0        0.299651   -0.005282    9.286990
     39          8           0       -9.722033   -3.013951    9.348856
     40          8           0       -6.436013    3.419084    8.647243
     41          8           0       -2.963033   -6.450446    8.735357
     42          8           0       -1.814224    0.771347    7.490911
     43          8           0       -7.614343   -3.862160    7.565171
     44          8           0       -4.554562    2.216745   10.422776
     45          8           0       -4.855179   -5.203042   10.520750
     46          8           0       -1.650641   -3.482123    5.217855
     47          8           0       -7.819357    0.272701    5.141856
     48          8           0       -8.039138   -0.186011   12.790835
     49          8           0       -1.339553   -2.789206   12.797420
     50         74           0       -1.254959   -0.522506    8.843544
     51         74           0       -8.170355   -2.504412    8.886280
     52         74           0       -5.956200    1.858688    9.050356
     53         74           0       -3.459323   -4.883413    9.164456
     54          8           0       -4.243113   -3.077418    6.088533
     55          8           0       -5.171141   -0.048149    6.036159
     56          8           0       -6.171610   -1.993618   11.905499
     57          8           0       -3.209055   -0.955303   11.912071
     58          8           0       -4.401842    1.591272    7.863837
     59          8           0       -5.006704   -4.650036    7.946840
     60          8           0       -2.360271    0.587641   10.063580
     61          8           0       -7.051740   -3.594783   10.123183
     62          8           0       -2.574553   -3.860089    7.867389
     63          8           0       -6.856673    0.782733    7.808976
     64          8           0       -7.843049   -1.163382   10.155280
     65          8           0       -1.578607   -1.843426   10.145794
     66          8           0       -3.401120   -1.127424    8.024503
     67          8           0       -6.018643   -1.948570    8.052082
     68          8           0       -5.130379   -0.206750    9.942269
     69          8           0       -4.260315   -2.808898    9.973736
     70         19           0       -3.242646   -6.083725    5.691786
     71         19           0       -0.183997    0.023471   12.323777
     72         19           0       -9.232022   -2.922668   12.378618
     73         23           0       -4.705528   -1.519490    8.995856
 ---------------------------------------------------------------------

 SCF Done:  E(UwB97XD) =  -7327.69233465     A.U. after   37 cycles

 Alpha  occ. eigenvalues --  -19.23641 -18.91840 -18.90752 -18.90712 -13.36347
 Alpha  occ. eigenvalues --  -13.36330 -13.36288 -10.69275 -10.69269 -10.69269
 Alpha  occ. eigenvalues --  -10.69259 -10.69253 -10.69253 -10.69218 -10.69212
 Alpha  occ. eigenvalues --  -10.69210 -10.32887 -10.32502 -10.31670 -10.30835
 Alpha  occ. eigenvalues --  -10.30793 -10.30777 -10.30469 -10.30348  -9.51683
 Alpha  occ. eigenvalues --   -7.26545  -7.26251  -7.26238  -3.21002  -3.20993
 Alpha  occ. eigenvalues --   -3.20953  -3.20947  -3.20936  -3.20925  -3.20909
 Alpha  occ. eigenvalues --   -3.20893  -3.20864  -3.20853  -3.20771  -3.20754
 Alpha  occ. eigenvalues --   -2.77120  -1.85277  -1.85184  -1.85173  -1.85144
 Alpha  occ. eigenvalues --   -1.85054  -1.85039  -1.84989  -1.84958  -1.84938
 Alpha  occ. eigenvalues --   -1.84924  -1.84858  -1.84822  -1.84314  -1.84204
 Alpha  occ. eigenvalues --   -1.84189  -1.84175  -1.84143  -1.84125  -1.84089
 Alpha  occ. eigenvalues --   -1.84048  -1.84029  -1.84016  -1.83989  -1.83979
 Alpha  occ. eigenvalues --   -1.83881  -1.83845  -1.83825  -1.83817  -1.83809
 Alpha  occ. eigenvalues --   -1.83758  -1.83743  -1.83726  -1.83716  -1.83647
 Alpha  occ. eigenvalues --   -1.83639  -1.83609  -1.80451  -1.80106  -1.80078
 Alpha  occ. eigenvalues --   -1.50067  -1.50050  -1.50011  -1.08501  -1.06900
 Alpha  occ. eigenvalues --   -1.06849  -1.06814  -1.05959  -1.05939  -1.05901
 Alpha  occ. eigenvalues --   -1.04532  -1.04526  -1.04514  -1.03917  -1.03891
 Alpha  occ. eigenvalues --   -1.03201  -1.03186  -1.03160  -1.03125  -1.03022
 Alpha  occ. eigenvalues --   -1.02994  -1.02142  -1.02114  -1.02103  -1.02061
 Alpha  occ. eigenvalues --   -1.01998  -1.01994  -1.01935  -1.01865  -1.01756
 Alpha  occ. eigenvalues --   -1.01721  -1.01704  -1.01614  -1.01475  -1.01455
 Alpha  occ. eigenvalues --   -1.01297  -1.00758  -1.00722  -1.00698  -1.00502
 Alpha  occ. eigenvalues --   -0.99370  -0.99299  -0.99209  -0.96092  -0.89414
 Alpha  occ. eigenvalues --   -0.85541  -0.85521  -0.85495  -0.85360  -0.85355
 Alpha  occ. eigenvalues --   -0.85344  -0.85339  -0.85308  -0.85294  -0.84087
 Alpha  occ. eigenvalues --   -0.82534  -0.80407  -0.71819  -0.69554  -0.64999
 Alpha  occ. eigenvalues --   -0.62298  -0.61653  -0.61616  -0.61568  -0.60617
 Alpha  occ. eigenvalues --   -0.59001  -0.58980  -0.58963  -0.58828  -0.58782
 Alpha  occ. eigenvalues --   -0.58756  -0.58744  -0.58694  -0.58490  -0.57121
 Alpha  occ. eigenvalues --   -0.57073  -0.57037  -0.56857  -0.56756  -0.56304
 Alpha  occ. eigenvalues --   -0.56277  -0.56235  -0.55719  -0.55580  -0.55248
 Alpha  occ. eigenvalues --   -0.55233  -0.55203  -0.54417  -0.54118  -0.54056
 Alpha  occ. eigenvalues --   -0.53903  -0.53536  -0.53472  -0.53447  -0.52726
 Alpha  occ. eigenvalues --   -0.52610  -0.52597  -0.52504  -0.52466  -0.51503
 Alpha  occ. eigenvalues --   -0.51489  -0.51471  -0.51453  -0.51404  -0.50730
 Alpha  occ. eigenvalues --   -0.50507  -0.50434  -0.50404  -0.50301  -0.50251
 Alpha  occ. eigenvalues --   -0.50237  -0.50101  -0.50071  -0.50012  -0.49791
 Alpha  occ. eigenvalues --   -0.49752  -0.49683  -0.49318  -0.49289  -0.49121
 Alpha  occ. eigenvalues --   -0.49090  -0.49034  -0.48981  -0.48946  -0.48906
 Alpha  occ. eigenvalues --   -0.48830  -0.48644  -0.48583  -0.48516  -0.47693
 Alpha  occ. eigenvalues --   -0.47659  -0.47086  -0.46347  -0.45899  -0.45874
 Alpha  occ. eigenvalues --   -0.45708  -0.45650  -0.45608  -0.45488  -0.45158
 Alpha  occ. eigenvalues --   -0.45123  -0.45117  -0.44788  -0.44572  -0.44341
 Alpha  occ. eigenvalues --   -0.44297  -0.44282  -0.44086  -0.44066  -0.43986
 Alpha  occ. eigenvalues --   -0.43137  -0.42936  -0.42367  -0.42334  -0.42267
 Alpha  occ. eigenvalues --   -0.42092  -0.42083  -0.41997  -0.41979  -0.41573
 Alpha  occ. eigenvalues --   -0.41534  -0.41501  -0.40993  -0.40934  -0.40746
 Alpha  occ. eigenvalues --   -0.40687  -0.40639  -0.40369  -0.40317  -0.40294
 Alpha  occ. eigenvalues --   -0.40183  -0.40153  -0.40142  -0.40069  -0.39823
 Alpha  occ. eigenvalues --   -0.39225  -0.39063  -0.39059  -0.39018  -0.38802
 Alpha  occ. eigenvalues --   -0.38754  -0.38688  -0.38575  -0.38379  -0.38337
 Alpha  occ. eigenvalues --   -0.38210  -0.38176  -0.38152  -0.37908  -0.37172
 Alpha  occ. eigenvalues --   -0.37101  -0.34173  -0.34127  -0.33451  -0.30734
 Alpha  occ. eigenvalues --   -0.23862
 Alpha virt. eigenvalues --   -0.10530  -0.06211  -0.06128  -0.04693  -0.04641
 Alpha virt. eigenvalues --   -0.04539  -0.01337  -0.01268  -0.01222  -0.00926
 Alpha virt. eigenvalues --   -0.00729  -0.00709  -0.00644  -0.00019   0.00065

  Beta  occ. eigenvalues -- -197.08428-129.98945-129.98928-129.98899-101.61669
  Beta  occ. eigenvalues --  -22.41036 -19.28432 -19.28408 -19.28407 -19.28368
  Beta  occ. eigenvalues --  -19.28366 -19.28357 -19.28320 -19.28312 -19.28296
  Beta  occ. eigenvalues --  -19.28284 -19.28095 -19.28054 -19.26932 -19.26879
  Beta  occ. eigenvalues --  -19.26866 -19.26855 -19.26844 -19.26821 -19.26818
  Beta  occ. eigenvalues --  -19.26803 -19.26799 -19.26795 -19.26790 -19.26787
  Beta  occ. eigenvalues --  -19.26782 -19.26771 -19.26755 -19.26750 -19.26746
  Beta  occ. eigenvalues --  -19.26718 -19.26688 -19.26679 -19.26678 -19.26664
  Beta  occ. eigenvalues --  -19.26613 -19.26569 -19.23727 -19.23654 -19.23652
  Beta  occ. eigenvalues --  -19.23614 -18.91502 -18.89322 -18.89244 -13.36347
  Beta  occ. eigenvalues --  -13.36330 -13.36288 -10.69275 -10.69269 -10.69269
  Beta  occ. eigenvalues --  -10.69259 -10.69253 -10.69253 -10.69218 -10.69212
  Beta  occ. eigenvalues --  -10.69210 -10.33195 -10.32678 -10.31608 -10.30930
  Beta  occ. eigenvalues --  -10.30902 -10.30873 -10.30415 -10.30292  -9.52119
  Beta  occ. eigenvalues --   -7.27904  -7.26549  -7.26535  -3.21001  -3.20986
  Beta  occ. eigenvalues --   -3.20952  -3.20947  -3.20929  -3.20918  -3.20902
  Beta  occ. eigenvalues --   -3.20886  -3.20857  -3.20850  -3.20770  -3.20748
  Beta  occ. eigenvalues --   -2.73109  -1.85271  -1.85178  -1.85167  -1.85134
  Beta  occ. eigenvalues --   -1.85049  -1.85035  -1.84983  -1.84953  -1.84928
  Beta  occ. eigenvalues --   -1.84912  -1.84855  -1.84813  -1.84311  -1.84202
  Beta  occ. eigenvalues --   -1.84185  -1.84172  -1.84139  -1.84121  -1.84086
  Beta  occ. eigenvalues --   -1.84046  -1.84026  -1.84012  -1.83985  -1.83975
  Beta  occ. eigenvalues --   -1.83878  -1.83841  -1.83822  -1.83814  -1.83805
  Beta  occ. eigenvalues --   -1.83755  -1.83740  -1.83723  -1.83712  -1.83645
  Beta  occ. eigenvalues --   -1.83636  -1.83606  -1.79148  -1.74507  -1.74338
  Beta  occ. eigenvalues --   -1.50067  -1.50050  -1.50011  -1.08486  -1.06884
  Beta  occ. eigenvalues --   -1.06833  -1.06792  -1.05957  -1.05938  -1.05900
  Beta  occ. eigenvalues --   -1.04533  -1.04527  -1.04513  -1.03919  -1.03890
  Beta  occ. eigenvalues --   -1.03173  -1.03153  -1.03144  -1.03094  -1.03013
  Beta  occ. eigenvalues --   -1.02981  -1.02125  -1.02098  -1.02083  -1.02048
  Beta  occ. eigenvalues --   -1.01990  -1.01984  -1.01936  -1.01856  -1.01750
  Beta  occ. eigenvalues --   -1.01717  -1.01702  -1.01616  -1.01460  -1.01447
  Beta  occ. eigenvalues --   -1.01296  -1.00758  -1.00722  -1.00698  -1.00440
  Beta  occ. eigenvalues --   -0.99208  -0.99102  -0.99057  -0.96317  -0.90219
  Beta  occ. eigenvalues --   -0.85541  -0.85521  -0.85495  -0.85359  -0.85355
  Beta  occ. eigenvalues --   -0.85344  -0.85339  -0.85308  -0.85294  -0.84228
  Beta  occ. eigenvalues --   -0.83876  -0.82664  -0.72116  -0.69667  -0.65270
  Beta  occ. eigenvalues --   -0.62297  -0.61653  -0.61616  -0.61567  -0.60825
  Beta  occ. eigenvalues --   -0.59001  -0.58978  -0.58962  -0.58777  -0.58755
  Beta  occ. eigenvalues --   -0.58739  -0.58706  -0.58659  -0.58490  -0.57095
  Beta  occ. eigenvalues --   -0.57043  -0.56930  -0.56887  -0.56746  -0.56302
  Beta  occ. eigenvalues --   -0.56254  -0.56208  -0.55538  -0.55343  -0.55232
  Beta  occ. eigenvalues --   -0.55208  -0.55193  -0.54612  -0.54113  -0.54049
  Beta  occ. eigenvalues --   -0.53898  -0.53517  -0.53446  -0.53408  -0.52787
  Beta  occ. eigenvalues --   -0.52605  -0.52599  -0.52498  -0.52458  -0.51486
  Beta  occ. eigenvalues --   -0.51465  -0.51455  -0.51444  -0.51378  -0.50963
  Beta  occ. eigenvalues --   -0.50418  -0.50395  -0.50351  -0.50275  -0.50211
  Beta  occ. eigenvalues --   -0.50111  -0.50083  -0.50046  -0.49980  -0.49741
  Beta  occ. eigenvalues --   -0.49697  -0.49660  -0.49312  -0.49280  -0.49121
  Beta  occ. eigenvalues --   -0.49082  -0.49037  -0.48967  -0.48934  -0.48892
  Beta  occ. eigenvalues --   -0.48820  -0.48645  -0.48599  -0.48505  -0.47815
  Beta  occ. eigenvalues --   -0.47625  -0.47564  -0.45904  -0.45748  -0.45705
  Beta  occ. eigenvalues --   -0.45599  -0.45536  -0.45423  -0.45162  -0.45129
  Beta  occ. eigenvalues --   -0.45115  -0.44921  -0.44787  -0.44572  -0.44330
  Beta  occ. eigenvalues --   -0.44284  -0.44277  -0.44038  -0.44019  -0.43967
  Beta  occ. eigenvalues --   -0.43123  -0.43044  -0.42441  -0.42282  -0.42242
  Beta  occ. eigenvalues --   -0.42157  -0.42119  -0.41939  -0.41928  -0.41639
  Beta  occ. eigenvalues --   -0.41562  -0.41478  -0.41426  -0.40992  -0.40892
  Beta  occ. eigenvalues --   -0.40656  -0.40632  -0.40616  -0.40338  -0.40303
  Beta  occ. eigenvalues --   -0.40273  -0.40161  -0.40146  -0.40102  -0.39760
  Beta  occ. eigenvalues --   -0.39460  -0.39224  -0.39066  -0.38999  -0.38942
  Beta  occ. eigenvalues --   -0.38714  -0.38635  -0.38600  -0.38338  -0.38331
  Beta  occ. eigenvalues --   -0.38241  -0.38172  -0.38119  -0.38017  -0.37174
  Beta  occ. eigenvalues --   -0.37100  -0.36689  -0.35035  -0.34988  -0.33727
  Beta  occ. eigenvalues --   -0.30437
  Beta virt. eigenvalues --   -0.06211  -0.06128  -0.04692  -0.04640  -0.04538
  Beta virt. eigenvalues --   -0.01334  -0.01264  -0.01218  -0.00920  -0.00722
  Beta virt. eigenvalues --   -0.00709  -0.00643  -0.00023   0.00071   0.00104

 Mulliken charges and spin densities:
               1          2
     1  Cl  -0.380867  -0.572818
     2  C   -0.040576  -0.089676
     3  C    0.010105   0.063425
     4  C   -0.035028  -0.087904
     5  C   -0.032081   0.055545
     6  C    0.005462  -0.102541
     7  C   -0.048604   0.054166
     8  H    0.046405   0.003816
     9  H    0.048073   0.003760
    10  H    0.053961  -0.001987
    11  H    0.055718   0.004519
    12  H    0.052573  -0.001909
    13  C    0.013519  -0.265834
    14  C   -0.005134  -0.075376
    15  H    0.073219   0.011316
    16  H    0.094626   0.003422
    17  H    0.095957   0.003044
    18  O   -0.669253  -0.000498
    19  O   -0.667405  -0.000431
    20  O   -0.662948  -0.001901
    21  O   -0.669281  -0.000468
    22  W    1.716657   0.000371
    23  W    1.657050   0.000608
    24  W    1.670593   0.000272
    25  W    1.679026   0.000237
    26  W    1.654139   0.003293
    27  W    1.705864   0.002975
    28  W    1.605265   0.003894
    29  W    1.665009   0.003430
    30  O   -0.355519  -0.000539
    31  O   -0.397840  -0.000556
    32  O   -0.397040  -0.000610
    33  O   -0.396748  -0.000556
    34  O   -0.669272  -0.000350
    35  O   -0.675544  -0.000046
    36  O   -0.667964  -0.000173
    37  O   -0.670368  -0.000253
    38  O   -0.396646   0.002201
    39  O   -0.397278   0.002248
    40  O   -0.339516  -0.001814
    41  O   -0.397849   0.002229
    42  O   -0.675156   0.000062
    43  O   -0.669156   0.000176
    44  O   -0.665244   0.000335
    45  O   -0.671118   0.000092
    46  O   -0.397388   0.002437
    47  O   -0.355728   0.002351
    48  O   -0.387514   0.001925
    49  O   -0.397685   0.002518
    50  W    1.651047   0.003417
    51  W    1.654416   0.003296
    52  W    1.667955   0.004319
    53  W    1.661691   0.003277
    54  O   -0.718628   0.000184
    55  O   -0.701559   0.000047
    56  O   -0.719052   0.000244
    57  O   -0.716135   0.000130
    58  O   -0.698324  -0.000026
    59  O   -0.720283   0.000206
    60  O   -0.718812   0.000295
    61  O   -0.716504   0.000286
    62  O   -0.719717  -0.000189
    63  O   -0.703395   0.000024
    64  O   -0.719965  -0.000208
    65  O   -0.722591  -0.000217
    66  O   -0.878618   0.006430
    67  O   -0.878389   0.008654
    68  O   -0.876146   0.008455
    69  O   -0.886311   0.007565
    70  K    0.844638   0.000269
    71  K    0.844242   0.000304
    72  K    0.839287   0.000326
    73  V    1.219683   0.924484
 Sum of Mulliken charges =  -1.00000   0.00000

 Dipole moment (field-independent basis, Debye):
    X=             29.3748    Y=            -13.0981    Z=            -31.0519  Tot=             44.7064
 Quadrupole moment (field-independent basis, Debye-Ang):
   XX=           -783.9148   YY=           -697.5870   ZZ=           -790.5620
   XY=            127.5024   XZ=            190.4823   YZ=            -88.6408

 Normal termination of Gaussian 16 at Sat Jun  1 14:38:44 2024.
