 Gaussian 16, Revision C.01,
 Gaussian 16:  ES64L-G16RevC.01  3-Jul-2019

 ----------------------------------------------------------------------
 # def2svp wb97xd scrf=(smd,solvent=acetonitrile) g09default scf=(xqc,m
 axcycle=64) force guess=read nosymm
 ----------------------------------------------------------------------

 ----------
 Title Card
 ----------
 Symbolic Z-matrix:
 Charge = -1 Multiplicity = 1

                          Input orientation:
 ---------------------------------------------------------------------
 Center     Atomic      Atomic             Coordinates (Angstroms)
 Number     Number       Type             X           Y           Z
 ---------------------------------------------------------------------
      1         17           0       -9.914927    7.682667   10.408838
      2          6           0       -8.314100    4.251216   12.239387
      3          6           0       -9.065871    3.928486   11.096144
      4          6           0      -10.007735    2.891512   11.199406
      5          6           0      -10.185853    2.193513   12.389415
      6          6           0       -9.427496    2.520465   13.513900
      7          6           0       -8.489439    3.551081   13.430086
      8          1           0       -7.576922    5.056831   12.199078
      9          1           0      -10.597065    2.628027   10.316927
     10          1           0      -10.912368    1.379303   12.434411
     11          1           0       -9.558630    1.967927   14.447242
     12          1           0       -7.884035    3.808996   14.303078
     13          6           0       -8.911436    4.617497    9.814693
     14          6           0       -8.081609    5.641846    9.569751
     15          1           0       -9.608979    4.313235    9.028618
     16          1           0       -8.057902    6.124627    8.593350
     17          1           0       -7.385648    6.036847   10.311549
     18          8           0       -1.015394   -1.760294    7.458285
     19          8           0       -8.404841   -1.327794    7.462861
     20          8           0       -7.058389    1.335397   10.495297
     21          8           0       -2.340272   -4.345123   10.564612
     22         74           0       -3.433503    0.751913    6.509383
     23         74           0       -6.011666   -3.827489    6.590645
     24         74           0       -3.635282    0.920822   11.398095
     25         74           0       -5.777804   -3.867013   11.466696
     26         74           0       -2.469669   -2.546831    6.375779
     27         74           0       -6.951193   -0.528496    6.348462
     28         74           0       -6.833041   -0.253704   11.600470
     29         74           0       -2.570332   -2.690512   11.630355
     30          8           0       -3.207882    1.955784    5.347513
     31          8           0       -6.136191   -5.091144    5.460433
     32          8           0       -2.701489    1.769551   12.537591
     33          8           0       -6.703383   -4.679134   12.639131
     34          8           0       -2.695203   -0.863753    5.605178
     35          8           0       -6.718324   -2.269750    5.646561
     36          8           0       -5.323431    0.568683   12.353500
     37          8           0       -4.068402   -3.512251   12.398905
     38          8           0        0.300784   -0.005600    9.287057
     39          8           0       -9.723406   -3.013604    9.348741
     40          8           0       -6.431832    3.418532    8.643481
     41          8           0       -2.962163   -6.450865    8.735423
     42          8           0       -1.816270    0.771457    7.491474
     43          8           0       -7.612269   -3.862277    7.566045
     44          8           0       -4.553471    2.214516   10.421794
     45          8           0       -4.856295   -5.201745   10.519786
     46          8           0       -1.650365   -3.482350    5.216472
     47          8           0       -7.818427    0.272507    5.142012
     48          8           0       -8.039749   -0.186526   12.792237
     49          8           0       -1.339206   -2.789212   12.798628
     50         74           0       -1.257499   -0.520985    8.844334
     51         74           0       -8.167978   -2.505905    8.886676
     52         74           0       -5.952914    1.858722    9.049035
     53         74           0       -3.461537   -4.883088    9.163620
     54          8           0       -4.242868   -3.080024    6.086767
     55          8           0       -5.171797   -0.045663    6.034185
     56          8           0       -6.174083   -1.994801   11.907435
     57          8           0       -3.206269   -0.954004   11.913677
     58          8           0       -4.402333    1.593121    7.862023
     59          8           0       -5.005582   -4.652857    7.945147
     60          8           0       -2.357212    0.588461   10.065144
     61          8           0       -7.054619   -3.595650   10.124747
     62          8           0       -2.574872   -3.861042    7.865764
     63          8           0       -6.856197    0.783343    7.807862
     64          8           0       -7.843700   -1.164393   10.156846
     65          8           0       -1.577754   -1.842696   10.147173
     66          8           0       -3.399962   -1.125089    8.021640
     67          8           0       -6.019996   -1.951716    8.049790
     68          8           0       -5.128274   -0.204948    9.945686
     69          8           0       -4.261771   -2.811395    9.976416
     70         19           0       -3.241683   -6.087122    5.689304
     71         19           0       -0.180722    0.024912   12.326250
     72         19           0       -9.235607   -2.923605   12.381475
     73         23           0       -4.705179   -1.519753    8.996111
 ---------------------------------------------------------------------

 SCF Done:  E(RwB97XD) =  -7327.69837890     A.U. after   13 cycles

 Alpha  occ. eigenvalues -- -197.27513-129.99964-129.99939-129.99845-101.47783
 Alpha  occ. eigenvalues --  -22.60797 -19.32649 -19.32628 -19.32620 -19.32615
 Alpha  occ. eigenvalues --  -19.30597 -19.30594 -19.30585 -19.30581 -19.30548
 Alpha  occ. eigenvalues --  -19.30540 -19.30532 -19.30516 -19.30431 -19.30238
 Alpha  occ. eigenvalues --  -19.30211 -19.30003 -19.29245 -19.29244 -19.29243
 Alpha  occ. eigenvalues --  -19.29228 -19.29219 -19.29213 -19.29189 -19.29177
 Alpha  occ. eigenvalues --  -19.29131 -19.29122 -19.29104 -19.29069 -19.29065
 Alpha  occ. eigenvalues --  -19.29035 -19.29033 -19.29029 -19.28999 -19.28999
 Alpha  occ. eigenvalues --  -19.28989 -19.28961 -19.28940 -19.28877 -19.28844
 Alpha  occ. eigenvalues --  -19.28730 -19.09733 -19.09722 -19.09721 -13.37360
 Alpha  occ. eigenvalues --  -13.37335 -13.37229 -10.70291 -10.70283 -10.70282
 Alpha  occ. eigenvalues --  -10.70266 -10.70257 -10.70257 -10.70161 -10.70153
 Alpha  occ. eigenvalues --  -10.70150 -10.29502 -10.29203 -10.29118 -10.28872
 Alpha  occ. eigenvalues --  -10.28727 -10.28677 -10.27705 -10.26678  -9.38260
 Alpha  occ. eigenvalues --   -7.13089  -7.13038  -7.13028  -3.23210  -3.23200
 Alpha  occ. eigenvalues --   -3.23188  -3.23176  -3.23175  -3.23148  -3.23128
 Alpha  occ. eigenvalues --   -3.23124  -3.23069  -3.22851  -3.22830  -3.22555
 Alpha  occ. eigenvalues --   -2.90459  -1.92966  -1.92937  -1.92916  -1.87601
 Alpha  occ. eigenvalues --   -1.87523  -1.87512  -1.87460  -1.87371  -1.87348
 Alpha  occ. eigenvalues --   -1.87327  -1.87314  -1.87268  -1.87139  -1.87105
 Alpha  occ. eigenvalues --   -1.86917  -1.86541  -1.86423  -1.86412  -1.86399
 Alpha  occ. eigenvalues --   -1.86362  -1.86330  -1.86249  -1.86226  -1.86210
 Alpha  occ. eigenvalues --   -1.86202  -1.86173  -1.86151  -1.86069  -1.86044
 Alpha  occ. eigenvalues --   -1.86030  -1.86003  -1.85968  -1.85912  -1.85892
 Alpha  occ. eigenvalues --   -1.85820  -1.85800  -1.85702  -1.85555  -1.85478
 Alpha  occ. eigenvalues --   -1.51064  -1.51040  -1.50936  -1.12490  -1.10677
 Alpha  occ. eigenvalues --   -1.10571  -1.10564  -1.08638  -1.08431  -1.08409
 Alpha  occ. eigenvalues --   -1.08214  -1.07259  -1.07194  -1.07181  -1.06827
 Alpha  occ. eigenvalues --   -1.06819  -1.06784  -1.06221  -1.06208  -1.05314
 Alpha  occ. eigenvalues --   -1.05299  -1.04915  -1.04903  -1.04877  -1.04169
 Alpha  occ. eigenvalues --   -1.04151  -1.04114  -1.03954  -1.03940  -1.03927
 Alpha  occ. eigenvalues --   -1.03851  -1.03832  -1.03803  -1.03663  -1.03631
 Alpha  occ. eigenvalues --   -1.03522  -1.03484  -1.03179  -1.03160  -1.03093
 Alpha  occ. eigenvalues --   -1.03070  -1.03015  -1.02871  -0.94188  -0.86557
 Alpha  occ. eigenvalues --   -0.86536  -0.86442  -0.86345  -0.86341  -0.86320
 Alpha  occ. eigenvalues --   -0.86315  -0.86229  -0.86221  -0.86206  -0.82607
 Alpha  occ. eigenvalues --   -0.79534  -0.71024  -0.69497  -0.67807  -0.64567
 Alpha  occ. eigenvalues --   -0.63907  -0.63849  -0.63823  -0.62806  -0.62781
 Alpha  occ. eigenvalues --   -0.62767  -0.62714  -0.62297  -0.62272  -0.61472
 Alpha  occ. eigenvalues --   -0.61454  -0.61435  -0.61328  -0.61231  -0.61218
 Alpha  occ. eigenvalues --   -0.61180  -0.60367  -0.59301  -0.59232  -0.59174
 Alpha  occ. eigenvalues --   -0.59116  -0.59104  -0.58478  -0.57953  -0.57926
 Alpha  occ. eigenvalues --   -0.57855  -0.56734  -0.56709  -0.56649  -0.56107
 Alpha  occ. eigenvalues --   -0.56091  -0.55952  -0.55595  -0.54774  -0.54719
 Alpha  occ. eigenvalues --   -0.54704  -0.54338  -0.54186  -0.54077  -0.54039
 Alpha  occ. eigenvalues --   -0.53844  -0.53797  -0.53369  -0.53339  -0.52988
 Alpha  occ. eigenvalues --   -0.52964  -0.52845  -0.52707  -0.52675  -0.52656
 Alpha  occ. eigenvalues --   -0.52628  -0.52509  -0.52459  -0.52256  -0.51352
 Alpha  occ. eigenvalues --   -0.51323  -0.51166  -0.51138  -0.51075  -0.51024
 Alpha  occ. eigenvalues --   -0.50999  -0.50918  -0.50857  -0.50831  -0.50655
 Alpha  occ. eigenvalues --   -0.50630  -0.50576  -0.49884  -0.49873  -0.49191
 Alpha  occ. eigenvalues --   -0.49167  -0.49078  -0.49073  -0.49043  -0.49015
 Alpha  occ. eigenvalues --   -0.48684  -0.47841  -0.47808  -0.47706  -0.47374
 Alpha  occ. eigenvalues --   -0.47252  -0.47213  -0.47147  -0.46919  -0.46817
 Alpha  occ. eigenvalues --   -0.46740  -0.46457  -0.46438  -0.46356  -0.45882
 Alpha  occ. eigenvalues --   -0.45824  -0.45783  -0.45413  -0.44986  -0.44806
 Alpha  occ. eigenvalues --   -0.44762  -0.44023  -0.43976  -0.43859  -0.43297
 Alpha  occ. eigenvalues --   -0.43238  -0.43173  -0.43040  -0.43027  -0.42973
 Alpha  occ. eigenvalues --   -0.42620  -0.42617  -0.42596  -0.42464  -0.42440
 Alpha  occ. eigenvalues --   -0.42401  -0.42383  -0.42330  -0.42245  -0.42226
 Alpha  occ. eigenvalues --   -0.42179  -0.41957  -0.41862  -0.41791  -0.41785
 Alpha  occ. eigenvalues --   -0.41176  -0.41159  -0.41007  -0.40922  -0.40513
 Alpha  occ. eigenvalues --   -0.40477  -0.40445  -0.40126  -0.39361  -0.39338
 Alpha  occ. eigenvalues --   -0.36588  -0.32380  -0.28921  -0.24729  -0.24662
 Alpha  occ. eigenvalues --   -0.22478
 Alpha virt. eigenvalues --   -0.08302  -0.08254  -0.07850  -0.07753  -0.06813
 Alpha virt. eigenvalues --   -0.06795  -0.06697  -0.03617  -0.03533  -0.03471
 Alpha virt. eigenvalues --   -0.03285  -0.03074  -0.03037  -0.02901  -0.02533

 Mulliken charges:
               1
     1  Cl  -0.905859
     2  C   -0.088341
     3  C    0.042978
     4  C   -0.082004
     5  C   -0.033595
     6  C   -0.035124
     7  C   -0.050308
     8  H    0.024660
     9  H    0.026447
    10  H    0.038645
    11  H    0.035422
    12  H    0.037939
    13  C   -0.078211
    14  C    0.043375
    15  H    0.007561
    16  H    0.028654
    17  H    0.031453
    18  O   -0.661089
    19  O   -0.659321
    20  O   -0.652985
    21  O   -0.660926
    22  W    1.735192
    23  W    1.674487
    24  W    1.685684
    25  W    1.695892
    26  W    1.671273
    27  W    1.725507
    28  W    1.616712
    29  W    1.682069
    30  O   -0.323097
    31  O   -0.370465
    32  O   -0.369721
    33  O   -0.368489
    34  O   -0.661861
    35  O   -0.669420
    36  O   -0.659862
    37  O   -0.662088
    38  O   -0.369227
    39  O   -0.369821
    40  O   -0.288052
    41  O   -0.368931
    42  O   -0.668766
    43  O   -0.661358
    44  O   -0.657555
    45  O   -0.663496
    46  O   -0.369621
    47  O   -0.322122
    48  O   -0.357338
    49  O   -0.368771
    50  W    1.668439
    51  W    1.671835
    52  W    1.669038
    53  W    1.679345
    54  O   -0.721838
    55  O   -0.705182
    56  O   -0.723675
    57  O   -0.719414
    58  O   -0.702418
    59  O   -0.724377
    60  O   -0.722804
    61  O   -0.720202
    62  O   -0.721974
    63  O   -0.706416
    64  O   -0.721286
    65  O   -0.725154
    66  O   -0.798770
    67  O   -0.797596
    68  O   -0.795785
    69  O   -0.810193
    70  K    0.859173
    71  K    0.858580
    72  K    0.854070
    73  V    1.210479
 Sum of Mulliken charges =  -1.00000

 Dipole moment (field-independent basis, Debye):
    X=             51.3269    Y=            -48.3028    Z=            -38.6771  Tot=             80.3961
 Quadrupole moment (field-independent basis, Debye-Ang):
   XX=          -1067.2191   YY=           -846.8336   ZZ=           -915.8995
   XY=            429.6592   XZ=            460.0847   YZ=           -446.3055

 Normal termination of Gaussian 16 at Sat Jun  1 15:28:21 2024.
