 Gaussian 16, Revision C.01,
 Gaussian 16:  ES64L-G16RevC.01  3-Jul-2019

 ----------------------------------------------------------------------
 # def2svp wb97xd scrf=(smd,solvent=acetonitrile) g09default scf=(xqc,m
 axcycle=64) force guess=read nosymm
 ----------------------------------------------------------------------

 ----------
 Title Card
 ----------
 Symbolic Z-matrix:
 Charge = -1 Multiplicity = 1

                          Input orientation:
 ---------------------------------------------------------------------
 Center     Atomic      Atomic             Coordinates (Angstroms)
 Number     Number       Type             X           Y           Z
 ---------------------------------------------------------------------
      1         17           0       -9.914927    7.682667   10.408838
      2          6           0       -8.314100    4.251216   12.239387
      3          6           0       -9.065871    3.928486   11.096144
      4          6           0      -10.007735    2.891512   11.199406
      5          6           0      -10.185853    2.193513   12.389415
      6          6           0       -9.427496    2.520465   13.513900
      7          6           0       -8.489439    3.551081   13.430086
      8          1           0       -7.576922    5.056831   12.199078
      9          1           0      -10.597065    2.628027   10.316927
     10          1           0      -10.912368    1.379303   12.434411
     11          1           0       -9.558630    1.967927   14.447242
     12          1           0       -7.884035    3.808996   14.303078
     13          6           0       -8.911436    4.617497    9.814693
     14          6           0       -8.081609    5.641846    9.569751
     15          1           0       -9.608979    4.313235    9.028618
     16          1           0       -8.057902    6.124627    8.593350
     17          1           0       -7.385648    6.036847   10.311549
     18          8           0       -1.015394   -1.760294    7.458285
     19          8           0       -8.404841   -1.327794    7.462861
     20          8           0       -7.058389    1.335397   10.495297
     21          8           0       -2.340272   -4.345123   10.564612
     22         74           0       -3.433503    0.751913    6.509383
     23         74           0       -6.011666   -3.827489    6.590645
     24         74           0       -3.635282    0.920822   11.398095
     25         74           0       -5.777804   -3.867013   11.466696
     26         74           0       -2.469669   -2.546831    6.375779
     27         74           0       -6.951193   -0.528496    6.348462
     28         74           0       -6.833041   -0.253704   11.600470
     29         74           0       -2.570332   -2.690512   11.630355
     30          8           0       -3.207882    1.955784    5.347513
     31          8           0       -6.136191   -5.091144    5.460433
     32          8           0       -2.701489    1.769551   12.537591
     33          8           0       -6.703383   -4.679134   12.639131
     34          8           0       -2.695203   -0.863753    5.605178
     35          8           0       -6.718324   -2.269750    5.646561
     36          8           0       -5.323431    0.568683   12.353500
     37          8           0       -4.068402   -3.512251   12.398905
     38          8           0        0.300784   -0.005600    9.287057
     39          8           0       -9.723406   -3.013604    9.348741
     40          8           0       -6.431832    3.418532    8.643481
     41          8           0       -2.962163   -6.450865    8.735423
     42          8           0       -1.816270    0.771457    7.491474
     43          8           0       -7.612269   -3.862277    7.566045
     44          8           0       -4.553471    2.214516   10.421794
     45          8           0       -4.856295   -5.201745   10.519786
     46          8           0       -1.650365   -3.482350    5.216472
     47          8           0       -7.818427    0.272507    5.142012
     48          8           0       -8.039749   -0.186526   12.792237
     49          8           0       -1.339206   -2.789212   12.798628
     50         74           0       -1.257499   -0.520985    8.844334
     51         74           0       -8.167978   -2.505905    8.886676
     52         74           0       -5.952914    1.858722    9.049035
     53         74           0       -3.461537   -4.883088    9.163620
     54          8           0       -4.242868   -3.080024    6.086767
     55          8           0       -5.171797   -0.045663    6.034185
     56          8           0       -6.174083   -1.994801   11.907435
     57          8           0       -3.206269   -0.954004   11.913677
     58          8           0       -4.402333    1.593121    7.862023
     59          8           0       -5.005582   -4.652857    7.945147
     60          8           0       -2.357212    0.588461   10.065144
     61          8           0       -7.054619   -3.595650   10.124747
     62          8           0       -2.574872   -3.861042    7.865764
     63          8           0       -6.856197    0.783343    7.807862
     64          8           0       -7.843700   -1.164393   10.156846
     65          8           0       -1.577754   -1.842696   10.147173
     66          8           0       -3.399962   -1.125089    8.021640
     67          8           0       -6.019996   -1.951716    8.049790
     68          8           0       -5.128274   -0.204948    9.945686
     69          8           0       -4.261771   -2.811395    9.976416
     70         19           0       -3.241683   -6.087122    5.689304
     71         19           0       -0.180722    0.024912   12.326250
     72         19           0       -9.235607   -2.923605   12.381475
     73         23           0       -4.705179   -1.519753    8.996111
 ---------------------------------------------------------------------

 SCF Done:  E(UwB97XD) =  -7327.69342387     A.U. after   36 cycles

 Alpha  occ. eigenvalues --  -19.23710 -18.92123 -18.91037 -18.90990 -13.36343
 Alpha  occ. eigenvalues --  -13.36328 -13.36278 -10.69271 -10.69265 -10.69265
 Alpha  occ. eigenvalues --  -10.69256 -10.69250 -10.69250 -10.69208 -10.69202
 Alpha  occ. eigenvalues --  -10.69200 -10.32938 -10.32514 -10.31703 -10.30861
 Alpha  occ. eigenvalues --  -10.30831 -10.30769 -10.30470 -10.30358  -9.51698
 Alpha  occ. eigenvalues --   -7.26561  -7.26264  -7.26252  -3.21016  -3.21001
 Alpha  occ. eigenvalues --   -3.20963  -3.20959  -3.20945  -3.20929  -3.20928
 Alpha  occ. eigenvalues --   -3.20915  -3.20878  -3.20850  -3.20780  -3.20761
 Alpha  occ. eigenvalues --   -2.77314  -1.85265  -1.85189  -1.85163  -1.85133
 Alpha  occ. eigenvalues --   -1.85045  -1.85031  -1.84970  -1.84959  -1.84932
 Alpha  occ. eigenvalues --   -1.84922  -1.84892  -1.84869  -1.84328  -1.84219
 Alpha  occ. eigenvalues --   -1.84204  -1.84189  -1.84157  -1.84138  -1.84099
 Alpha  occ. eigenvalues --   -1.84062  -1.84041  -1.84028  -1.84002  -1.83993
 Alpha  occ. eigenvalues --   -1.83891  -1.83855  -1.83841  -1.83832  -1.83820
 Alpha  occ. eigenvalues --   -1.83768  -1.83752  -1.83738  -1.83734  -1.83654
 Alpha  occ. eigenvalues --   -1.83644  -1.83616  -1.80614  -1.80277  -1.80248
 Alpha  occ. eigenvalues --   -1.50062  -1.50046  -1.49999  -1.08532  -1.06929
 Alpha  occ. eigenvalues --   -1.06875  -1.06844  -1.05982  -1.05968  -1.05927
 Alpha  occ. eigenvalues --   -1.04557  -1.04547  -1.04532  -1.03942  -1.03911
 Alpha  occ. eigenvalues --   -1.03240  -1.03206  -1.03167  -1.03128  -1.03041
 Alpha  occ. eigenvalues --   -1.03011  -1.02135  -1.02104  -1.02079  -1.02027
 Alpha  occ. eigenvalues --   -1.01982  -1.01972  -1.01924  -1.01866  -1.01761
 Alpha  occ. eigenvalues --   -1.01727  -1.01710  -1.01620  -1.01516  -1.01511
 Alpha  occ. eigenvalues --   -1.01305  -1.00771  -1.00737  -1.00712  -1.00533
 Alpha  occ. eigenvalues --   -0.99439  -0.99359  -0.99267  -0.96109  -0.89373
 Alpha  occ. eigenvalues --   -0.85535  -0.85516  -0.85482  -0.85354  -0.85350
 Alpha  occ. eigenvalues --   -0.85339  -0.85335  -0.85297  -0.85281  -0.84131
 Alpha  occ. eigenvalues --   -0.82476  -0.80414  -0.71874  -0.69519  -0.65041
 Alpha  occ. eigenvalues --   -0.62332  -0.61684  -0.61647  -0.61598  -0.60624
 Alpha  occ. eigenvalues --   -0.59022  -0.59009  -0.58991  -0.58853  -0.58803
 Alpha  occ. eigenvalues --   -0.58780  -0.58767  -0.58715  -0.58523  -0.57144
 Alpha  occ. eigenvalues --   -0.57093  -0.57059  -0.56879  -0.56779  -0.56336
 Alpha  occ. eigenvalues --   -0.56308  -0.56263  -0.55750  -0.55603  -0.55269
 Alpha  occ. eigenvalues --   -0.55251  -0.55219  -0.54410  -0.54131  -0.54067
 Alpha  occ. eigenvalues --   -0.53919  -0.53542  -0.53491  -0.53460  -0.52707
 Alpha  occ. eigenvalues --   -0.52594  -0.52587  -0.52513  -0.52476  -0.51509
 Alpha  occ. eigenvalues --   -0.51488  -0.51484  -0.51439  -0.51390  -0.50715
 Alpha  occ. eigenvalues --   -0.50516  -0.50430  -0.50402  -0.50309  -0.50262
 Alpha  occ. eigenvalues --   -0.50254  -0.50092  -0.50087  -0.50015  -0.49791
 Alpha  occ. eigenvalues --   -0.49746  -0.49682  -0.49313  -0.49282  -0.49126
 Alpha  occ. eigenvalues --   -0.49089  -0.49046  -0.48985  -0.48951  -0.48897
 Alpha  occ. eigenvalues --   -0.48809  -0.48648  -0.48601  -0.48532  -0.47701
 Alpha  occ. eigenvalues --   -0.47674  -0.47098  -0.46350  -0.45898  -0.45871
 Alpha  occ. eigenvalues --   -0.45748  -0.45654  -0.45612  -0.45500  -0.45159
 Alpha  occ. eigenvalues --   -0.45124  -0.45119  -0.44800  -0.44581  -0.44356
 Alpha  occ. eigenvalues --   -0.44314  -0.44300  -0.44110  -0.44085  -0.44016
 Alpha  occ. eigenvalues --   -0.43158  -0.43042  -0.42372  -0.42344  -0.42294
 Alpha  occ. eigenvalues --   -0.42110  -0.42038  -0.42016  -0.42002  -0.41567
 Alpha  occ. eigenvalues --   -0.41534  -0.41508  -0.40994  -0.40932  -0.40747
 Alpha  occ. eigenvalues --   -0.40697  -0.40651  -0.40376  -0.40329  -0.40300
 Alpha  occ. eigenvalues --   -0.40184  -0.40149  -0.40138  -0.40085  -0.39827
 Alpha  occ. eigenvalues --   -0.39224  -0.39073  -0.39067  -0.39031  -0.38816
 Alpha  occ. eigenvalues --   -0.38765  -0.38707  -0.38593  -0.38403  -0.38368
 Alpha  occ. eigenvalues --   -0.38230  -0.38204  -0.38177  -0.37863  -0.37181
 Alpha  occ. eigenvalues --   -0.37113  -0.34170  -0.34133  -0.33500  -0.30572
 Alpha  occ. eigenvalues --   -0.24076
 Alpha virt. eigenvalues --   -0.10731  -0.06224  -0.06160  -0.04714  -0.04666
 Alpha virt. eigenvalues --   -0.04553  -0.01347  -0.01274  -0.01228  -0.00978
 Alpha virt. eigenvalues --   -0.00760  -0.00746  -0.00676  -0.00055   0.00045

  Beta  occ. eigenvalues -- -197.08734-129.98940-129.98925-129.98888-101.61684
  Beta  occ. eigenvalues --  -22.41313 -19.28421 -19.28387 -19.28361 -19.28359
  Beta  occ. eigenvalues --  -19.28324 -19.28318 -19.28314 -19.28304 -19.28290
  Beta  occ. eigenvalues --  -19.28249 -19.28165 -19.28117 -19.26941 -19.26875
  Beta  occ. eigenvalues --  -19.26873 -19.26857 -19.26855 -19.26838 -19.26808
  Beta  occ. eigenvalues --  -19.26807 -19.26806 -19.26800 -19.26799 -19.26795
  Beta  occ. eigenvalues --  -19.26789 -19.26779 -19.26767 -19.26766 -19.26750
  Beta  occ. eigenvalues --  -19.26738 -19.26707 -19.26692 -19.26690 -19.26676
  Beta  occ. eigenvalues --  -19.26608 -19.26563 -19.23832 -19.23755 -19.23740
  Beta  occ. eigenvalues --  -19.23684 -18.91784 -18.89608 -18.89517 -13.36343
  Beta  occ. eigenvalues --  -13.36328 -13.36278 -10.69271 -10.69265 -10.69265
  Beta  occ. eigenvalues --  -10.69256 -10.69250 -10.69250 -10.69208 -10.69202
  Beta  occ. eigenvalues --  -10.69200 -10.33235 -10.32692 -10.31643 -10.30956
  Beta  occ. eigenvalues --  -10.30941 -10.30863 -10.30417 -10.30303  -9.52134
  Beta  occ. eigenvalues --   -7.27922  -7.26562  -7.26549  -3.21015  -3.20994
  Beta  occ. eigenvalues --   -3.20963  -3.20959  -3.20938  -3.20923  -3.20921
  Beta  occ. eigenvalues --   -3.20908  -3.20871  -3.20847  -3.20780  -3.20755
  Beta  occ. eigenvalues --   -2.73296  -1.85260  -1.85182  -1.85158  -1.85125
  Beta  occ. eigenvalues --   -1.85043  -1.85023  -1.84965  -1.84953  -1.84922
  Beta  occ. eigenvalues --   -1.84915  -1.84883  -1.84860  -1.84325  -1.84216
  Beta  occ. eigenvalues --   -1.84200  -1.84186  -1.84153  -1.84135  -1.84096
  Beta  occ. eigenvalues --   -1.84059  -1.84038  -1.84025  -1.83999  -1.83989
  Beta  occ. eigenvalues --   -1.83888  -1.83851  -1.83838  -1.83829  -1.83817
  Beta  occ. eigenvalues --   -1.83765  -1.83749  -1.83734  -1.83730  -1.83652
  Beta  occ. eigenvalues --   -1.83641  -1.83613  -1.79306  -1.74680  -1.74483
  Beta  occ. eigenvalues --   -1.50062  -1.50046  -1.49999  -1.08518  -1.06912
  Beta  occ. eigenvalues --   -1.06859  -1.06822  -1.05980  -1.05967  -1.05925
  Beta  occ. eigenvalues --   -1.04558  -1.04548  -1.04531  -1.03944  -1.03910
  Beta  occ. eigenvalues --   -1.03195  -1.03186  -1.03149  -1.03096  -1.03035
  Beta  occ. eigenvalues --   -1.03000  -1.02119  -1.02087  -1.02058  -1.02016
  Beta  occ. eigenvalues --   -1.01976  -1.01960  -1.01926  -1.01857  -1.01756
  Beta  occ. eigenvalues --   -1.01723  -1.01706  -1.01622  -1.01509  -1.01499
  Beta  occ. eigenvalues --   -1.01304  -1.00771  -1.00737  -1.00712  -1.00473
  Beta  occ. eigenvalues --   -0.99282  -0.99170  -0.99113  -0.96330  -0.90157
  Beta  occ. eigenvalues --   -0.85535  -0.85516  -0.85482  -0.85354  -0.85350
  Beta  occ. eigenvalues --   -0.85339  -0.85335  -0.85297  -0.85281  -0.84266
  Beta  occ. eigenvalues --   -0.83856  -0.82662  -0.72169  -0.69632  -0.65309
  Beta  occ. eigenvalues --   -0.62332  -0.61683  -0.61647  -0.61597  -0.60828
  Beta  occ. eigenvalues --   -0.59021  -0.59006  -0.58990  -0.58802  -0.58779
  Beta  occ. eigenvalues --   -0.58757  -0.58727  -0.58682  -0.58522  -0.57121
  Beta  occ. eigenvalues --   -0.57059  -0.56946  -0.56907  -0.56775  -0.56333
  Beta  occ. eigenvalues --   -0.56286  -0.56235  -0.55561  -0.55371  -0.55253
  Beta  occ. eigenvalues --   -0.55227  -0.55210  -0.54602  -0.54125  -0.54060
  Beta  occ. eigenvalues --   -0.53913  -0.53523  -0.53463  -0.53422  -0.52767
  Beta  occ. eigenvalues --   -0.52599  -0.52581  -0.52506  -0.52470  -0.51492
  Beta  occ. eigenvalues --   -0.51472  -0.51460  -0.51439  -0.51356  -0.50947
  Beta  occ. eigenvalues --   -0.50418  -0.50395  -0.50364  -0.50281  -0.50219
  Beta  occ. eigenvalues --   -0.50116  -0.50081  -0.50054  -0.49980  -0.49739
  Beta  occ. eigenvalues --   -0.49694  -0.49658  -0.49309  -0.49273  -0.49127
  Beta  occ. eigenvalues --   -0.49082  -0.49048  -0.48968  -0.48945  -0.48885
  Beta  occ. eigenvalues --   -0.48798  -0.48644  -0.48619  -0.48522  -0.47815
  Beta  occ. eigenvalues --   -0.47642  -0.47571  -0.45946  -0.45740  -0.45706
  Beta  occ. eigenvalues --   -0.45606  -0.45551  -0.45420  -0.45162  -0.45132
  Beta  occ. eigenvalues --   -0.45116  -0.44923  -0.44800  -0.44581  -0.44345
  Beta  occ. eigenvalues --   -0.44303  -0.44294  -0.44063  -0.44040  -0.43993
  Beta  occ. eigenvalues --   -0.43152  -0.43139  -0.42423  -0.42289  -0.42264
  Beta  occ. eigenvalues --   -0.42141  -0.42095  -0.41960  -0.41949  -0.41612
  Beta  occ. eigenvalues --   -0.41555  -0.41480  -0.41401  -0.40995  -0.40888
  Beta  occ. eigenvalues --   -0.40662  -0.40635  -0.40624  -0.40343  -0.40314
  Beta  occ. eigenvalues --   -0.40279  -0.40157  -0.40141  -0.40104  -0.39764
  Beta  occ. eigenvalues --   -0.39473  -0.39223  -0.39076  -0.39006  -0.38952
  Beta  occ. eigenvalues --   -0.38734  -0.38657  -0.38621  -0.38367  -0.38353
  Beta  occ. eigenvalues --   -0.38264  -0.38203  -0.38152  -0.38048  -0.37183
  Beta  occ. eigenvalues --   -0.37112  -0.36754  -0.35041  -0.35001  -0.33769
  Beta  occ. eigenvalues --   -0.30476
  Beta virt. eigenvalues --   -0.06224  -0.06161  -0.04713  -0.04665  -0.04552
  Beta virt. eigenvalues --   -0.01345  -0.01269  -0.01224  -0.00972  -0.00754
  Beta virt. eigenvalues --   -0.00746  -0.00675  -0.00060   0.00050   0.00084

 Mulliken charges and spin densities:
               1          2
     1  Cl  -0.381232  -0.575206
     2  C   -0.038610  -0.089371
     3  C    0.010304   0.061304
     4  C   -0.035334  -0.086339
     5  C   -0.032026   0.055200
     6  C    0.006223  -0.103195
     7  C   -0.048835   0.053767
     8  H    0.046348   0.003801
     9  H    0.048565   0.003709
    10  H    0.053861  -0.001972
    11  H    0.055740   0.004538
    12  H    0.053061  -0.001892
    13  C    0.009905  -0.256914
    14  C   -0.003872  -0.080222
    15  H    0.073392   0.010936
    16  H    0.094394   0.003626
    17  H    0.095275   0.003232
    18  O   -0.669353  -0.000509
    19  O   -0.667673  -0.000439
    20  O   -0.663456  -0.001914
    21  O   -0.669428  -0.000478
    22  W    1.717814   0.000362
    23  W    1.658968   0.000588
    24  W    1.672680   0.000259
    25  W    1.680916   0.000222
    26  W    1.655827   0.003215
    27  W    1.706061   0.002859
    28  W    1.606988   0.003817
    29  W    1.666312   0.003340
    30  O   -0.352380  -0.000532
    31  O   -0.398569  -0.000564
    32  O   -0.397617  -0.000616
    33  O   -0.396814  -0.000561
    34  O   -0.669523  -0.000337
    35  O   -0.675887  -0.000028
    36  O   -0.667998  -0.000153
    37  O   -0.670444  -0.000236
    38  O   -0.398597   0.002196
    39  O   -0.399377   0.002238
    40  O   -0.339254  -0.001885
    41  O   -0.398567   0.002214
    42  O   -0.675523   0.000056
    43  O   -0.669318   0.000175
    44  O   -0.665545   0.000338
    45  O   -0.671210   0.000096
    46  O   -0.399149   0.002411
    47  O   -0.353029   0.002269
    48  O   -0.389703   0.001874
    49  O   -0.398444   0.002482
    50  W    1.652641   0.003338
    51  W    1.656053   0.003213
    52  W    1.668377   0.004247
    53  W    1.663134   0.003189
    54  O   -0.718915   0.000178
    55  O   -0.702300   0.000044
    56  O   -0.719143   0.000241
    57  O   -0.716570   0.000128
    58  O   -0.699133  -0.000034
    59  O   -0.720614   0.000201
    60  O   -0.719231   0.000285
    61  O   -0.716873   0.000278
    62  O   -0.719957  -0.000180
    63  O   -0.703931   0.000026
    64  O   -0.720121  -0.000199
    65  O   -0.722716  -0.000207
    66  O   -0.878905   0.006181
    67  O   -0.878555   0.008532
    68  O   -0.876917   0.008311
    69  O   -0.886827   0.007485
    70  K    0.844861   0.000260
    71  K    0.844451   0.000293
    72  K    0.839421   0.000317
    73  V    1.215905   0.926116
 Sum of Mulliken charges =  -1.00000  -0.00000

 Dipole moment (field-independent basis, Debye):
    X=             29.3779    Y=            -13.0955    Z=            -31.1476  Tot=             44.7742
 Quadrupole moment (field-independent basis, Debye-Ang):
   XX=           -784.4470   YY=           -698.6489   ZZ=           -791.9112
   XY=            127.9015   XZ=            191.1217   YZ=            -88.9893

 Normal termination of Gaussian 16 at Sat Jun  1 15:16:39 2024.
