 Gaussian 16, Revision C.01,
 Gaussian 16:  ES64L-G16RevC.01  3-Jul-2019

 ----------------------------------------------------------------------
 # def2svp wb97xd scrf=(smd,solvent=acetonitrile) g09default scf=(xqc,m
 axcycle=64) force guess=read nosymm
 ----------------------------------------------------------------------

 ----------
 Title Card
 ----------
 Symbolic Z-matrix:
 Charge = -1 Multiplicity = 1

                          Input orientation:
 ---------------------------------------------------------------------
 Center     Atomic      Atomic             Coordinates (Angstroms)
 Number     Number       Type             X           Y           Z
 ---------------------------------------------------------------------
      1         17           0       -9.929159    7.717946   10.418187
      2          6           0       -8.313181    4.249812   12.238767
      3          6           0       -9.063527    3.924421   11.094472
      4          6           0      -10.007512    2.889345   11.199975
      5          6           0      -10.186680    2.193649   12.391474
      6          6           0       -9.428499    2.520120   13.514962
      7          6           0       -8.489963    3.551408   13.431344
      8          1           0       -7.577660    5.055707   12.199257
      9          1           0      -10.597202    2.626982   10.318204
     10          1           0      -10.913303    1.379371   12.435202
     11          1           0       -9.558227    1.967171   14.448459
     12          1           0       -7.884736    3.809705   14.303046
     13          6           0       -8.910011    4.615335    9.813553
     14          6           0       -8.079677    5.637178    9.565931
     15          1           0       -9.606888    4.308119    9.024819
     16          1           0       -8.059701    6.124721    8.591058
     17          1           0       -7.386967    6.033825   10.312045
     18          8           0       -1.017590   -1.761562    7.460573
     19          8           0       -8.402477   -1.326637    7.464702
     20          8           0       -7.057684    1.334162   10.492609
     21          8           0       -2.340512   -4.342939   10.562549
     22         74           0       -3.434443    0.749537    6.507732
     23         74           0       -6.009975   -3.826040    6.589445
     24         74           0       -3.635063    0.918226   11.399776
     25         74           0       -5.778186   -3.865775   11.467704
     26         74           0       -2.469652   -2.547395    6.377483
     27         74           0       -6.950924   -0.528372    6.350120
     28         74           0       -6.833807   -0.254421   11.598985
     29         74           0       -2.569251   -2.690392   11.629431
     30          8           0       -3.207637    1.956466    5.346731
     31          8           0       -6.136438   -5.090683    5.460578
     32          8           0       -2.701849    1.769707   12.537246
     33          8           0       -6.703166   -4.679153   12.638640
     34          8           0       -2.696981   -0.864328    5.604424
     35          8           0       -6.717176   -2.268488    5.645350
     36          8           0       -5.323137    0.566330   12.354796
     37          8           0       -4.068677   -3.510403   12.399814
     38          8           0        0.300186   -0.006463    9.286332
     39          8           0       -9.723116   -3.012667    9.347670
     40          8           0       -6.425930    3.417917    8.638705
     41          8           0       -2.961624   -6.450058    8.736147
     42          8           0       -1.817899    0.773252    7.491609
     43          8           0       -7.610505   -3.864052    7.566701
     44          8           0       -4.551163    2.213296   10.420966
     45          8           0       -4.858382   -5.202056   10.518963
     46          8           0       -1.650637   -3.481364    5.216264
     47          8           0       -7.818707    0.273169    5.140891
     48          8           0       -8.038897   -0.186947   12.792090
     49          8           0       -1.339837   -2.789496   12.798882
     50         74           0       -1.259864   -0.518648    8.845517
     51         74           0       -8.165678   -2.507968    8.887306
     52         74           0       -5.948190    1.857395    9.047270
     53         74           0       -3.464207   -4.882980    9.162237
     54          8           0       -4.242115   -3.083614    6.083976
     55          8           0       -5.173154   -0.041845    6.030870
     56          8           0       -6.177634   -1.996321   11.910555
     57          8           0       -3.202132   -0.952454   11.916311
     58          8           0       -4.402588    1.595787    7.859035
     59          8           0       -5.004178   -4.657219    7.942570
     60          8           0       -2.353126    0.590136   10.067809
     61          8           0       -7.058441   -3.597309   10.127478
     62          8           0       -2.575445   -3.862754    7.863716
     63          8           0       -6.855384    0.784676    7.806388
     64          8           0       -7.844711   -1.165899   10.158923
     65          8           0       -1.576438   -1.841554   10.149088
     66          8           0       -3.398034   -1.123149    8.018709
     67          8           0       -6.021924   -1.954781    8.047752
     68          8           0       -5.126878   -0.202605    9.949738
     69          8           0       -4.262500   -2.814551    9.979408
     70         19           0       -3.240364   -6.091922    5.685786
     71         19           0       -0.176142    0.026949   12.329703
     72         19           0       -9.240644   -2.924869   12.385511
     73         23           0       -4.704973   -1.520101    8.995560
 ---------------------------------------------------------------------

 SCF Done:  E(RwB97XD) =  -7327.69899952     A.U. after   17 cycles

 Alpha  occ. eigenvalues -- -197.27887-129.99982-129.99955-129.99862-101.47719
 Alpha  occ. eigenvalues --  -22.61135 -19.32815 -19.32810 -19.32807 -19.32774
 Alpha  occ. eigenvalues --  -19.30614 -19.30612 -19.30610 -19.30599 -19.30571
 Alpha  occ. eigenvalues --  -19.30562 -19.30545 -19.30529 -19.30441 -19.30217
 Alpha  occ. eigenvalues --  -19.30202 -19.29990 -19.29286 -19.29269 -19.29268
 Alpha  occ. eigenvalues --  -19.29258 -19.29249 -19.29243 -19.29225 -19.29199
 Alpha  occ. eigenvalues --  -19.29136 -19.29123 -19.29112 -19.29087 -19.29061
 Alpha  occ. eigenvalues --  -19.29046 -19.29037 -19.29030 -19.29026 -19.29016
 Alpha  occ. eigenvalues --  -19.28992 -19.28990 -19.28961 -19.28893 -19.28872
 Alpha  occ. eigenvalues --  -19.28708 -19.10075 -19.10065 -19.10064 -13.37380
 Alpha  occ. eigenvalues --  -13.37352 -13.37246 -10.70310 -10.70302 -10.70302
 Alpha  occ. eigenvalues --  -10.70283 -10.70275 -10.70274 -10.70179 -10.70170
 Alpha  occ. eigenvalues --  -10.70168 -10.29576 -10.29245 -10.29149 -10.28929
 Alpha  occ. eigenvalues --  -10.28793 -10.28734 -10.27741 -10.26860  -9.38190
 Alpha  occ. eigenvalues --   -7.13016  -7.12970  -7.12962  -3.23226  -3.23214
 Alpha  occ. eigenvalues --   -3.23212  -3.23211  -3.23190  -3.23179  -3.23156
 Alpha  occ. eigenvalues --   -3.23139  -3.23079  -3.22871  -3.22853  -3.22561
 Alpha  occ. eigenvalues --   -2.90706  -1.93185  -1.93157  -1.93136  -1.87621
 Alpha  occ. eigenvalues --   -1.87548  -1.87539  -1.87476  -1.87391  -1.87373
 Alpha  occ. eigenvalues --   -1.87353  -1.87341  -1.87284  -1.87132  -1.87102
 Alpha  occ. eigenvalues --   -1.86911  -1.86561  -1.86443  -1.86433  -1.86417
 Alpha  occ. eigenvalues --   -1.86386  -1.86344  -1.86274  -1.86250  -1.86238
 Alpha  occ. eigenvalues --   -1.86225  -1.86189  -1.86163  -1.86086  -1.86059
 Alpha  occ. eigenvalues --   -1.86053  -1.86027  -1.85982  -1.85929  -1.85916
 Alpha  occ. eigenvalues --   -1.85846  -1.85824  -1.85728  -1.85565  -1.85489
 Alpha  occ. eigenvalues --   -1.51082  -1.51055  -1.50951  -1.12591  -1.10783
 Alpha  occ. eigenvalues --   -1.10688  -1.10676  -1.08709  -1.08472  -1.08446
 Alpha  occ. eigenvalues --   -1.08261  -1.07323  -1.07269  -1.07246  -1.06863
 Alpha  occ. eigenvalues --   -1.06848  -1.06812  -1.06258  -1.06235  -1.05329
 Alpha  occ. eigenvalues --   -1.05314  -1.04931  -1.04925  -1.04891  -1.04189
 Alpha  occ. eigenvalues --   -1.04173  -1.04139  -1.03971  -1.03956  -1.03949
 Alpha  occ. eigenvalues --   -1.03870  -1.03845  -1.03816  -1.03678  -1.03641
 Alpha  occ. eigenvalues --   -1.03543  -1.03501  -1.03154  -1.03144  -1.03112
 Alpha  occ. eigenvalues --   -1.03079  -1.03031  -1.02865  -0.94226  -0.86572
 Alpha  occ. eigenvalues --   -0.86548  -0.86454  -0.86362  -0.86358  -0.86335
 Alpha  occ. eigenvalues --   -0.86330  -0.86304  -0.86235  -0.86221  -0.82642
 Alpha  occ. eigenvalues --   -0.79602  -0.70942  -0.69543  -0.67863  -0.64604
 Alpha  occ. eigenvalues --   -0.63946  -0.63886  -0.63859  -0.62872  -0.62849
 Alpha  occ. eigenvalues --   -0.62809  -0.62797  -0.62359  -0.62341  -0.61562
 Alpha  occ. eigenvalues --   -0.61498  -0.61478  -0.61369  -0.61261  -0.61251
 Alpha  occ. eigenvalues --   -0.61204  -0.60400  -0.59347  -0.59283  -0.59241
 Alpha  occ. eigenvalues --   -0.59182  -0.59169  -0.58517  -0.57986  -0.57956
 Alpha  occ. eigenvalues --   -0.57885  -0.56790  -0.56772  -0.56709  -0.56141
 Alpha  occ. eigenvalues --   -0.56128  -0.55986  -0.55616  -0.54805  -0.54743
 Alpha  occ. eigenvalues --   -0.54724  -0.54396  -0.54198  -0.54084  -0.54038
 Alpha  occ. eigenvalues --   -0.53856  -0.53817  -0.53365  -0.53338  -0.53017
 Alpha  occ. eigenvalues --   -0.52993  -0.52870  -0.52717  -0.52688  -0.52662
 Alpha  occ. eigenvalues --   -0.52644  -0.52511  -0.52467  -0.52300  -0.51390
 Alpha  occ. eigenvalues --   -0.51362  -0.51192  -0.51174  -0.51102  -0.51052
 Alpha  occ. eigenvalues --   -0.51025  -0.50954  -0.50878  -0.50846  -0.50637
 Alpha  occ. eigenvalues --   -0.50620  -0.50578  -0.49905  -0.49884  -0.49205
 Alpha  occ. eigenvalues --   -0.49182  -0.49095  -0.49080  -0.49073  -0.49029
 Alpha  occ. eigenvalues --   -0.48724  -0.47874  -0.47840  -0.47736  -0.47449
 Alpha  occ. eigenvalues --   -0.47275  -0.47219  -0.47154  -0.46930  -0.46837
 Alpha  occ. eigenvalues --   -0.46761  -0.46488  -0.46479  -0.46385  -0.45937
 Alpha  occ. eigenvalues --   -0.45884  -0.45836  -0.45453  -0.45009  -0.44831
 Alpha  occ. eigenvalues --   -0.44788  -0.44057  -0.44005  -0.43886  -0.43334
 Alpha  occ. eigenvalues --   -0.43264  -0.43199  -0.43053  -0.43042  -0.42991
 Alpha  occ. eigenvalues --   -0.42635  -0.42628  -0.42606  -0.42483  -0.42466
 Alpha  occ. eigenvalues --   -0.42416  -0.42400  -0.42361  -0.42257  -0.42239
 Alpha  occ. eigenvalues --   -0.42190  -0.41973  -0.41854  -0.41787  -0.41785
 Alpha  occ. eigenvalues --   -0.41188  -0.41168  -0.41018  -0.40974  -0.40536
 Alpha  occ. eigenvalues --   -0.40502  -0.40475  -0.40167  -0.39373  -0.39362
 Alpha  occ. eigenvalues --   -0.36638  -0.32404  -0.28877  -0.24663  -0.24604
 Alpha  occ. eigenvalues --   -0.22633
 Alpha virt. eigenvalues --   -0.08331  -0.08305  -0.08122  -0.08047  -0.06840
 Alpha virt. eigenvalues --   -0.06819  -0.06736  -0.03664  -0.03583  -0.03528
 Alpha virt. eigenvalues --   -0.03360  -0.03135  -0.03101  -0.02955  -0.02673

 Mulliken charges:
               1
     1  Cl  -0.912118
     2  C   -0.086757
     3  C    0.042067
     4  C   -0.080756
     5  C   -0.033318
     6  C   -0.034009
     7  C   -0.050155
     8  H    0.025093
     9  H    0.026693
    10  H    0.039124
    11  H    0.036130
    12  H    0.038045
    13  C   -0.079228
    14  C    0.039164
    15  H    0.010364
    16  H    0.030150
    17  H    0.032264
    18  O   -0.661722
    19  O   -0.659828
    20  O   -0.653859
    21  O   -0.661672
    22  W    1.736461
    23  W    1.676203
    24  W    1.687326
    25  W    1.697155
    26  W    1.672920
    27  W    1.725888
    28  W    1.617922
    29  W    1.682954
    30  O   -0.324200
    31  O   -0.369910
    32  O   -0.369262
    33  O   -0.367664
    34  O   -0.662339
    35  O   -0.669469
    36  O   -0.660466
    37  O   -0.662643
    38  O   -0.368883
    39  O   -0.369683
    40  O   -0.289345
    41  O   -0.368429
    42  O   -0.668974
    43  O   -0.661720
    44  O   -0.658241
    45  O   -0.664061
    46  O   -0.369338
    47  O   -0.323824
    48  O   -0.357126
    49  O   -0.368160
    50  W    1.669841
    51  W    1.673548
    52  W    1.670184
    53  W    1.680452
    54  O   -0.722278
    55  O   -0.705248
    56  O   -0.723800
    57  O   -0.719872
    58  O   -0.702717
    59  O   -0.724734
    60  O   -0.723209
    61  O   -0.720499
    62  O   -0.722196
    63  O   -0.706520
    64  O   -0.721519
    65  O   -0.725306
    66  O   -0.798932
    67  O   -0.797801
    68  O   -0.796027
    69  O   -0.809702
    70  K    0.859799
    71  K    0.859154
    72  K    0.854639
    73  V    1.203979
 Sum of Mulliken charges =  -1.00000

 Dipole moment (field-independent basis, Debye):
    X=             51.4657    Y=            -48.7620    Z=            -38.6088  Tot=             80.7285
 Quadrupole moment (field-independent basis, Debye-Ang):
   XX=          -1068.9891   YY=           -850.4533   ZZ=           -914.3672
   XY=            434.0273   XZ=            461.0118   YZ=           -450.7537

 Normal termination of Gaussian 16 at Sat Jun  1 16:13:35 2024.
