 Gaussian 16, Revision C.01,
 Gaussian 16:  ES64L-G16RevC.01  3-Jul-2019

 ----------------------------------------------------------------------
 # def2svp wb97xd scrf=(smd,solvent=acetonitrile) g09default scf=(xqc,m
 axcycle=64) force guess=read nosymm
 ----------------------------------------------------------------------

 ----------
 Title Card
 ----------
 Symbolic Z-matrix:
 Charge = -1 Multiplicity = 1

                          Input orientation:
 ---------------------------------------------------------------------
 Center     Atomic      Atomic             Coordinates (Angstroms)
 Number     Number       Type             X           Y           Z
 ---------------------------------------------------------------------
      1         17           0       -9.929159    7.717946   10.418187
      2          6           0       -8.313181    4.249812   12.238767
      3          6           0       -9.063527    3.924421   11.094472
      4          6           0      -10.007512    2.889345   11.199975
      5          6           0      -10.186680    2.193649   12.391474
      6          6           0       -9.428499    2.520120   13.514962
      7          6           0       -8.489963    3.551408   13.431344
      8          1           0       -7.577660    5.055707   12.199257
      9          1           0      -10.597202    2.626982   10.318204
     10          1           0      -10.913303    1.379371   12.435202
     11          1           0       -9.558227    1.967171   14.448459
     12          1           0       -7.884736    3.809705   14.303046
     13          6           0       -8.910011    4.615335    9.813553
     14          6           0       -8.079677    5.637178    9.565931
     15          1           0       -9.606888    4.308119    9.024819
     16          1           0       -8.059701    6.124721    8.591058
     17          1           0       -7.386967    6.033825   10.312045
     18          8           0       -1.017590   -1.761562    7.460573
     19          8           0       -8.402477   -1.326637    7.464702
     20          8           0       -7.057684    1.334162   10.492609
     21          8           0       -2.340512   -4.342939   10.562549
     22         74           0       -3.434443    0.749537    6.507732
     23         74           0       -6.009975   -3.826040    6.589445
     24         74           0       -3.635063    0.918226   11.399776
     25         74           0       -5.778186   -3.865775   11.467704
     26         74           0       -2.469652   -2.547395    6.377483
     27         74           0       -6.950924   -0.528372    6.350120
     28         74           0       -6.833807   -0.254421   11.598985
     29         74           0       -2.569251   -2.690392   11.629431
     30          8           0       -3.207637    1.956466    5.346731
     31          8           0       -6.136438   -5.090683    5.460578
     32          8           0       -2.701849    1.769707   12.537246
     33          8           0       -6.703166   -4.679153   12.638640
     34          8           0       -2.696981   -0.864328    5.604424
     35          8           0       -6.717176   -2.268488    5.645350
     36          8           0       -5.323137    0.566330   12.354796
     37          8           0       -4.068677   -3.510403   12.399814
     38          8           0        0.300186   -0.006463    9.286332
     39          8           0       -9.723116   -3.012667    9.347670
     40          8           0       -6.425930    3.417917    8.638705
     41          8           0       -2.961624   -6.450058    8.736147
     42          8           0       -1.817899    0.773252    7.491609
     43          8           0       -7.610505   -3.864052    7.566701
     44          8           0       -4.551163    2.213296   10.420966
     45          8           0       -4.858382   -5.202056   10.518963
     46          8           0       -1.650637   -3.481364    5.216264
     47          8           0       -7.818707    0.273169    5.140891
     48          8           0       -8.038897   -0.186947   12.792090
     49          8           0       -1.339837   -2.789496   12.798882
     50         74           0       -1.259864   -0.518648    8.845517
     51         74           0       -8.165678   -2.507968    8.887306
     52         74           0       -5.948190    1.857395    9.047270
     53         74           0       -3.464207   -4.882980    9.162237
     54          8           0       -4.242115   -3.083614    6.083976
     55          8           0       -5.173154   -0.041845    6.030870
     56          8           0       -6.177634   -1.996321   11.910555
     57          8           0       -3.202132   -0.952454   11.916311
     58          8           0       -4.402588    1.595787    7.859035
     59          8           0       -5.004178   -4.657219    7.942570
     60          8           0       -2.353126    0.590136   10.067809
     61          8           0       -7.058441   -3.597309   10.127478
     62          8           0       -2.575445   -3.862754    7.863716
     63          8           0       -6.855384    0.784676    7.806388
     64          8           0       -7.844711   -1.165899   10.158923
     65          8           0       -1.576438   -1.841554   10.149088
     66          8           0       -3.398034   -1.123149    8.018709
     67          8           0       -6.021924   -1.954781    8.047752
     68          8           0       -5.126878   -0.202605    9.949738
     69          8           0       -4.262500   -2.814551    9.979408
     70         19           0       -3.240364   -6.091922    5.685786
     71         19           0       -0.176142    0.026949   12.329703
     72         19           0       -9.240644   -2.924869   12.385511
     73         23           0       -4.704973   -1.520101    8.995560
 ---------------------------------------------------------------------

 SCF Done:  E(UwB97XD) =  -7327.69476287     A.U. after   46 cycles

 Alpha  occ. eigenvalues --  -19.23895 -18.92520 -18.91433 -18.91383 -13.36361
 Alpha  occ. eigenvalues --  -13.36349 -13.36296 -10.69289 -10.69284 -10.69283
 Alpha  occ. eigenvalues --  -10.69278 -10.69272 -10.69272 -10.69226 -10.69220
 Alpha  occ. eigenvalues --  -10.69218 -10.32910 -10.32427 -10.31719 -10.30865
 Alpha  occ. eigenvalues --  -10.30836 -10.30769 -10.30478 -10.30356  -9.51880
 Alpha  occ. eigenvalues --   -7.26747  -7.26441  -7.26430  -3.21024  -3.21005
 Alpha  occ. eigenvalues --   -3.20992  -3.20975  -3.20968  -3.20953  -3.20940
 Alpha  occ. eigenvalues --   -3.20930  -3.20909  -3.20838  -3.20799  -3.20778
 Alpha  occ. eigenvalues --   -2.77603  -1.85266  -1.85207  -1.85186  -1.85152
 Alpha  occ. eigenvalues --   -1.85050  -1.85020  -1.84991  -1.84980  -1.84950
 Alpha  occ. eigenvalues --   -1.84937  -1.84901  -1.84859  -1.84343  -1.84233
 Alpha  occ. eigenvalues --   -1.84218  -1.84206  -1.84171  -1.84159  -1.84108
 Alpha  occ. eigenvalues --   -1.84079  -1.84058  -1.84050  -1.84020  -1.84012
 Alpha  occ. eigenvalues --   -1.83902  -1.83875  -1.83853  -1.83844  -1.83832
 Alpha  occ. eigenvalues --   -1.83782  -1.83770  -1.83754  -1.83748  -1.83666
 Alpha  occ. eigenvalues --   -1.83660  -1.83637  -1.80867  -1.80536  -1.80506
 Alpha  occ. eigenvalues --   -1.50078  -1.50066  -1.50015  -1.08568  -1.06952
 Alpha  occ. eigenvalues --   -1.06914  -1.06875  -1.06011  -1.05996  -1.05962
 Alpha  occ. eigenvalues --   -1.04578  -1.04564  -1.04559  -1.03963  -1.03938
 Alpha  occ. eigenvalues --   -1.03315  -1.03250  -1.03206  -1.03184  -1.03058
 Alpha  occ. eigenvalues --   -1.03029  -1.02147  -1.02119  -1.02097  -1.02038
 Alpha  occ. eigenvalues --   -1.01998  -1.01985  -1.01921  -1.01875  -1.01770
 Alpha  occ. eigenvalues --   -1.01745  -1.01726  -1.01623  -1.01510  -1.01499
 Alpha  occ. eigenvalues --   -1.01311  -1.00788  -1.00750  -1.00727  -1.00580
 Alpha  occ. eigenvalues --   -0.99536  -0.99465  -0.99393  -0.96091  -0.89352
 Alpha  occ. eigenvalues --   -0.85548  -0.85532  -0.85494  -0.85370  -0.85366
 Alpha  occ. eigenvalues --   -0.85358  -0.85354  -0.85312  -0.85297  -0.84122
 Alpha  occ. eigenvalues --   -0.82449  -0.80531  -0.71846  -0.69525  -0.65006
 Alpha  occ. eigenvalues --   -0.62364  -0.61719  -0.61677  -0.61631  -0.60601
 Alpha  occ. eigenvalues --   -0.59043  -0.59030  -0.59016  -0.58877  -0.58827
 Alpha  occ. eigenvalues --   -0.58802  -0.58791  -0.58739  -0.58555  -0.57181
 Alpha  occ. eigenvalues --   -0.57138  -0.57099  -0.56901  -0.56779  -0.56380
 Alpha  occ. eigenvalues --   -0.56354  -0.56312  -0.55814  -0.55656  -0.55301
 Alpha  occ. eigenvalues --   -0.55290  -0.55257  -0.54390  -0.54156  -0.54095
 Alpha  occ. eigenvalues --   -0.53941  -0.53564  -0.53512  -0.53485  -0.52716
 Alpha  occ. eigenvalues --   -0.52615  -0.52601  -0.52525  -0.52486  -0.51510
 Alpha  occ. eigenvalues --   -0.51493  -0.51487  -0.51419  -0.51374  -0.50704
 Alpha  occ. eigenvalues --   -0.50544  -0.50445  -0.50420  -0.50326  -0.50284
 Alpha  occ. eigenvalues --   -0.50255  -0.50092  -0.50076  -0.50010  -0.49792
 Alpha  occ. eigenvalues --   -0.49746  -0.49678  -0.49345  -0.49312  -0.49146
 Alpha  occ. eigenvalues --   -0.49118  -0.49079  -0.49009  -0.48975  -0.48917
 Alpha  occ. eigenvalues --   -0.48801  -0.48637  -0.48599  -0.48522  -0.47711
 Alpha  occ. eigenvalues --   -0.47694  -0.47094  -0.46377  -0.45910  -0.45888
 Alpha  occ. eigenvalues --   -0.45713  -0.45676  -0.45630  -0.45520  -0.45169
 Alpha  occ. eigenvalues --   -0.45124  -0.45121  -0.44809  -0.44594  -0.44386
 Alpha  occ. eigenvalues --   -0.44351  -0.44338  -0.44146  -0.44124  -0.44064
 Alpha  occ. eigenvalues --   -0.43201  -0.43025  -0.42405  -0.42371  -0.42334
 Alpha  occ. eigenvalues --   -0.42145  -0.42057  -0.42043  -0.42035  -0.41578
 Alpha  occ. eigenvalues --   -0.41549  -0.41517  -0.40997  -0.40942  -0.40770
 Alpha  occ. eigenvalues --   -0.40718  -0.40670  -0.40375  -0.40334  -0.40311
 Alpha  occ. eigenvalues --   -0.40194  -0.40164  -0.40154  -0.40107  -0.39845
 Alpha  occ. eigenvalues --   -0.39233  -0.39097  -0.39088  -0.39059  -0.38848
 Alpha  occ. eigenvalues --   -0.38791  -0.38741  -0.38659  -0.38461  -0.38432
 Alpha  occ. eigenvalues --   -0.38265  -0.38247  -0.38214  -0.37851  -0.37188
 Alpha  occ. eigenvalues --   -0.37134  -0.34281  -0.34247  -0.33500  -0.30427
 Alpha  occ. eigenvalues --   -0.24395
 Alpha virt. eigenvalues --   -0.11025  -0.06238  -0.06195  -0.04735  -0.04689
 Alpha virt. eigenvalues --   -0.04587  -0.01357  -0.01283  -0.01243  -0.01021
 Alpha virt. eigenvalues --   -0.00808  -0.00789  -0.00717  -0.00082   0.00013

  Beta  occ. eigenvalues -- -197.09159-129.98958-129.98946-129.98905-101.61870
  Beta  occ. eigenvalues --  -22.41701 -19.28427 -19.28411 -19.28376 -19.28364
  Beta  occ. eigenvalues --  -19.28340 -19.28324 -19.28319 -19.28304 -19.28285
  Beta  occ. eigenvalues --  -19.28269 -19.28150 -19.28092 -19.26962 -19.26885
  Beta  occ. eigenvalues --  -19.26882 -19.26860 -19.26857 -19.26844 -19.26836
  Beta  occ. eigenvalues --  -19.26833 -19.26824 -19.26823 -19.26803 -19.26795
  Beta  occ. eigenvalues --  -19.26792 -19.26787 -19.26785 -19.26772 -19.26770
  Beta  occ. eigenvalues --  -19.26751 -19.26721 -19.26712 -19.26682 -19.26668
  Beta  occ. eigenvalues --  -19.26619 -19.26586 -19.23969 -19.23919 -19.23900
  Beta  occ. eigenvalues --  -19.23869 -18.92179 -18.90003 -18.89905 -13.36361
  Beta  occ. eigenvalues --  -13.36349 -13.36296 -10.69289 -10.69284 -10.69283
  Beta  occ. eigenvalues --  -10.69278 -10.69272 -10.69272 -10.69226 -10.69220
  Beta  occ. eigenvalues --  -10.69218 -10.33192 -10.32606 -10.31663 -10.30957
  Beta  occ. eigenvalues --  -10.30944 -10.30860 -10.30426 -10.30302  -9.52321
  Beta  occ. eigenvalues --   -7.28126  -7.26742  -7.26731  -3.21024  -3.20998
  Beta  occ. eigenvalues --   -3.20991  -3.20974  -3.20962  -3.20946  -3.20934
  Beta  occ. eigenvalues --   -3.20923  -3.20903  -3.20836  -3.20799  -3.20773
  Beta  occ. eigenvalues --   -2.73575  -1.85261  -1.85201  -1.85181  -1.85143
  Beta  occ. eigenvalues --   -1.85047  -1.85014  -1.84986  -1.84974  -1.84940
  Beta  occ. eigenvalues --   -1.84928  -1.84897  -1.84850  -1.84340  -1.84230
  Beta  occ. eigenvalues --   -1.84215  -1.84203  -1.84167  -1.84156  -1.84105
  Beta  occ. eigenvalues --   -1.84077  -1.84054  -1.84047  -1.84017  -1.84008
  Beta  occ. eigenvalues --   -1.83899  -1.83871  -1.83850  -1.83841  -1.83830
  Beta  occ. eigenvalues --   -1.83779  -1.83768  -1.83752  -1.83744  -1.83664
  Beta  occ. eigenvalues --   -1.83657  -1.83635  -1.79552  -1.74932  -1.74719
  Beta  occ. eigenvalues --   -1.50078  -1.50066  -1.50015  -1.08553  -1.06934
  Beta  occ. eigenvalues --   -1.06897  -1.06852  -1.06009  -1.05995  -1.05960
  Beta  occ. eigenvalues --   -1.04579  -1.04565  -1.04557  -1.03965  -1.03938
  Beta  occ. eigenvalues --   -1.03259  -1.03231  -1.03187  -1.03152  -1.03055
  Beta  occ. eigenvalues --   -1.03019  -1.02131  -1.02100  -1.02077  -1.02028
  Beta  occ. eigenvalues --   -1.01992  -1.01972  -1.01921  -1.01866  -1.01765
  Beta  occ. eigenvalues --   -1.01742  -1.01722  -1.01627  -1.01506  -1.01482
  Beta  occ. eigenvalues --   -1.01311  -1.00788  -1.00750  -1.00727  -1.00524
  Beta  occ. eigenvalues --   -0.99383  -0.99289  -0.99242  -0.96307  -0.90109
  Beta  occ. eigenvalues --   -0.85548  -0.85532  -0.85494  -0.85370  -0.85366
  Beta  occ. eigenvalues --   -0.85358  -0.85354  -0.85312  -0.85297  -0.84260
  Beta  occ. eigenvalues --   -0.83958  -0.82702  -0.72130  -0.69636  -0.65266
  Beta  occ. eigenvalues --   -0.62364  -0.61718  -0.61677  -0.61631  -0.60801
  Beta  occ. eigenvalues --   -0.59043  -0.59027  -0.59015  -0.58821  -0.58800
  Beta  occ. eigenvalues --   -0.58781  -0.58752  -0.58705  -0.58555  -0.57163
  Beta  occ. eigenvalues --   -0.57045  -0.56979  -0.56944  -0.56809  -0.56377
  Beta  occ. eigenvalues --   -0.56331  -0.56283  -0.55614  -0.55430  -0.55285
  Beta  occ. eigenvalues --   -0.55265  -0.55250  -0.54576  -0.54150  -0.54088
  Beta  occ. eigenvalues --   -0.53935  -0.53543  -0.53487  -0.53443  -0.52776
  Beta  occ. eigenvalues --   -0.52612  -0.52604  -0.52517  -0.52480  -0.51491
  Beta  occ. eigenvalues --   -0.51479  -0.51469  -0.51415  -0.51337  -0.50925
  Beta  occ. eigenvalues --   -0.50431  -0.50403  -0.50376  -0.50294  -0.50242
  Beta  occ. eigenvalues --   -0.50133  -0.50083  -0.50047  -0.49976  -0.49742
  Beta  occ. eigenvalues --   -0.49693  -0.49654  -0.49341  -0.49303  -0.49149
  Beta  occ. eigenvalues --   -0.49109  -0.49079  -0.48993  -0.48968  -0.48903
  Beta  occ. eigenvalues --   -0.48792  -0.48637  -0.48614  -0.48511  -0.47806
  Beta  occ. eigenvalues --   -0.47664  -0.47567  -0.45902  -0.45759  -0.45721
  Beta  occ. eigenvalues --   -0.45635  -0.45565  -0.45437  -0.45171  -0.45133
  Beta  occ. eigenvalues --   -0.45121  -0.44948  -0.44809  -0.44593  -0.44372
  Beta  occ. eigenvalues --   -0.44341  -0.44327  -0.44104  -0.44081  -0.44041
  Beta  occ. eigenvalues --   -0.43189  -0.43125  -0.42436  -0.42320  -0.42294
  Beta  occ. eigenvalues --   -0.42167  -0.42101  -0.41993  -0.41989  -0.41604
  Beta  occ. eigenvalues --   -0.41565  -0.41491  -0.41394  -0.40998  -0.40895
  Beta  occ. eigenvalues --   -0.40683  -0.40655  -0.40638  -0.40344  -0.40319
  Beta  occ. eigenvalues --   -0.40289  -0.40168  -0.40157  -0.40113  -0.39783
  Beta  occ. eigenvalues --   -0.39503  -0.39231  -0.39093  -0.39021  -0.38982
  Beta  occ. eigenvalues --   -0.38769  -0.38701  -0.38659  -0.38428  -0.38401
  Beta  occ. eigenvalues --   -0.38310  -0.38251  -0.38204  -0.38123  -0.37190
  Beta  occ. eigenvalues --   -0.37135  -0.36926  -0.35173  -0.35138  -0.33759
  Beta  occ. eigenvalues --   -0.30565
  Beta virt. eigenvalues --   -0.06238  -0.06195  -0.04733  -0.04688  -0.04586
  Beta virt. eigenvalues --   -0.01354  -0.01279  -0.01238  -0.01015  -0.00803
  Beta virt. eigenvalues --   -0.00788  -0.00716  -0.00087   0.00019   0.00049

 Mulliken charges and spin densities:
               1          2
     1  Cl  -0.374512  -0.585702
     2  C   -0.038830  -0.086732
     3  C    0.011452   0.057507
     4  C   -0.035423  -0.083962
     5  C   -0.031699   0.053584
     6  C    0.006271  -0.100953
     7  C   -0.048618   0.052387
     8  H    0.045986   0.003686
     9  H    0.048143   0.003608
    10  H    0.053917  -0.001910
    11  H    0.055882   0.004438
    12  H    0.052695  -0.001839
    13  C    0.006985  -0.243711
    14  C   -0.007829  -0.083013
    15  H    0.073970   0.010419
    16  H    0.094257   0.003744
    17  H    0.094631   0.003363
    18  O   -0.669980  -0.000522
    19  O   -0.668172  -0.000453
    20  O   -0.664268  -0.001916
    21  O   -0.670148  -0.000493
    22  W    1.719365   0.000351
    23  W    1.660995   0.000569
    24  W    1.674522   0.000247
    25  W    1.682398   0.000207
    26  W    1.657713   0.003097
    27  W    1.706713   0.002763
    28  W    1.608258   0.003675
    29  W    1.667365   0.003212
    30  O   -0.353614  -0.000540
    31  O   -0.398080  -0.000572
    32  O   -0.397249  -0.000621
    33  O   -0.396037  -0.000566
    34  O   -0.670021  -0.000318
    35  O   -0.676020  -0.000011
    36  O   -0.668628  -0.000127
    37  O   -0.671001  -0.000216
    38  O   -0.398294   0.002163
    39  O   -0.399295   0.002200
    40  O   -0.339869  -0.001886
    41  O   -0.398105   0.002179
    42  O   -0.675804   0.000060
    43  O   -0.669724   0.000176
    44  O   -0.666250   0.000340
    45  O   -0.671812   0.000101
    46  O   -0.398892   0.002363
    47  O   -0.354838   0.002244
    48  O   -0.389409   0.001809
    49  O   -0.397843   0.002426
    50  W    1.654316   0.003209
    51  W    1.658034   0.003085
    52  W    1.669026   0.004138
    53  W    1.664454   0.003054
    54  O   -0.719540   0.000168
    55  O   -0.702608   0.000042
    56  O   -0.719475   0.000232
    57  O   -0.717172   0.000122
    58  O   -0.699638  -0.000038
    59  O   -0.721186   0.000192
    60  O   -0.719884   0.000272
    61  O   -0.717374   0.000267
    62  O   -0.720313  -0.000171
    63  O   -0.704269   0.000028
    64  O   -0.720472  -0.000189
    65  O   -0.723003  -0.000198
    66  O   -0.879672   0.005961
    67  O   -0.879311   0.008276
    68  O   -0.877781   0.008185
    69  O   -0.887097   0.007431
    70  K    0.845599   0.000246
    71  K    0.845130   0.000276
    72  K    0.840116   0.000302
    73  V    1.210864   0.928255
 Sum of Mulliken charges =  -1.00000   0.00000

 Dipole moment (field-independent basis, Debye):
    X=             29.3974    Y=            -13.2246    Z=            -31.0690  Tot=             44.7703
 Quadrupole moment (field-independent basis, Debye-Ang):
   XX=           -784.1391   YY=           -698.3784   ZZ=           -790.4518
   XY=            128.4248   XZ=            190.7318   YZ=            -89.8180

 Normal termination of Gaussian 16 at Sat Jun  1 16:00:02 2024.
