 Gaussian 16, Revision C.01,
 Gaussian 16:  ES64L-G16RevC.01  3-Jul-2019

 ----------------------------------------------------------------------
 # pbe1pbe em=gd3bj genecp g09default scf=(xqc,maxcycle=64) force guess
 =read nosymm
 ----------------------------------------------------------------------

 ----------
 Title Card
 ----------
 Symbolic Z-matrix:
 Charge =  0 Multiplicity = 1

                          Input orientation:
 ---------------------------------------------------------------------
 Center     Atomic      Atomic             Coordinates (Angstroms)
 Number     Number       Type             X           Y           Z
 ---------------------------------------------------------------------
      1          6           0        0.000002    0.680015    0.000082
      2          6           0       -1.216419    1.356950    0.000036
      3          6           0       -1.231548    2.748520   -0.000001
      4          6           0        0.000001    3.416063    0.000013
      5          6           0        1.231550    2.748521    0.000051
      6          6           0        1.216422    1.356951    0.000080
      7          1           0       -2.151343    3.322127   -0.000045
      8          1           0        0.000001    4.502271   -0.000011
      9          1           0        2.151345    3.322128    0.000051
     10          6           0        3.657878    0.575868   -0.000020
     11          6           0        1.890767   -0.896589    0.000090
     12          6           0        4.162974   -0.739580   -0.000102
     13          6           0        4.522762    1.663789   -0.000051
     14          6           0        5.526638   -1.001681   -0.000206
     15          6           0        5.894577    1.400531   -0.000168
     16          1           0        4.158989    2.683783    0.000014
     17          6           0        6.389343    0.095571   -0.000241
     18          1           0        5.907085   -2.018465   -0.000251
     19          1           0        6.589482    2.234959   -0.000196
     20          1           0        7.462317   -0.071107   -0.000322
     21          6           0       -3.657875    0.575864   -0.000031
     22          6           0       -1.890761   -0.896590    0.000034
     23          6           0       -4.162968   -0.739585   -0.000064
     24          6           0       -4.522760    1.663783   -0.000049
     25          6           0       -5.526632   -1.001689   -0.000104
     26          6           0       -5.894575    1.400523   -0.000096
     27          1           0       -4.158989    2.683778   -0.000021
     28          6           0       -6.389338    0.095562   -0.000121
     29          1           0       -5.907078   -2.018473   -0.000111
     30          1           0       -6.589481    2.234949   -0.000109
     31          1           0       -7.462313   -0.071118   -0.000150
     32          7           0       -2.280669    0.445569    0.000011
     33          7           0       -3.072576   -1.590161   -0.000037
     34          7           0        2.280672    0.445570    0.000092
     35          7           0        3.072583   -1.590157   -0.000047
     36          6           0        3.173546   -3.023055    0.000003
     37          1           0        3.703487   -3.376196   -0.892080
     38          1           0        3.703069   -3.376194    0.892338
     39          1           0        2.165681   -3.442111   -0.000241
     40          6           0       -3.173536   -3.023058    0.000041
     41          1           0       -3.702998   -3.376187    0.892417
     42          1           0       -3.703537   -3.376213   -0.892001
     43          1           0       -2.165671   -3.442113   -0.000268
     44         27           0        0.000002   -1.169246    0.000131
 ---------------------------------------------------------------------

 SCF Done:  E(UPBE1PBE) =  -1212.15268534     A.U. after   29 cycles

 Alpha  occ. eigenvalues --  -14.45506 -14.45506 -14.44735 -14.44734 -10.27483
 Alpha  occ. eigenvalues --  -10.27482 -10.27374 -10.27373 -10.27210 -10.27209
 Alpha  occ. eigenvalues --  -10.27186 -10.27185 -10.24820 -10.24819 -10.24127
 Alpha  occ. eigenvalues --  -10.24127 -10.23872 -10.23872 -10.23406 -10.23406
 Alpha  occ. eigenvalues --  -10.23348 -10.23348 -10.21470 -10.21466 -10.21191
 Alpha  occ. eigenvalues --  -10.18342  -3.83279  -2.35258  -2.34831  -2.31226
 Alpha  occ. eigenvalues --   -1.06152  -1.06077  -0.96378  -0.95976  -0.88160
 Alpha  occ. eigenvalues --   -0.87899  -0.85120  -0.79863  -0.78593  -0.77846
 Alpha  occ. eigenvalues --   -0.77811  -0.75708  -0.75104  -0.72695  -0.72298
 Alpha  occ. eigenvalues --   -0.66402  -0.64956  -0.64455  -0.63709  -0.62780
 Alpha  occ. eigenvalues --   -0.61240  -0.58835  -0.57450  -0.56279  -0.53976
 Alpha  occ. eigenvalues --   -0.53122  -0.51769  -0.49630  -0.49568  -0.49031
 Alpha  occ. eigenvalues --   -0.47801  -0.47527  -0.47048  -0.46782  -0.45978
 Alpha  occ. eigenvalues --   -0.45899  -0.44988  -0.44860  -0.44416  -0.43896
 Alpha  occ. eigenvalues --   -0.42086  -0.41996  -0.41391  -0.38518  -0.38482
 Alpha  occ. eigenvalues --   -0.38393  -0.37424  -0.37283  -0.36615  -0.36472
 Alpha  occ. eigenvalues --   -0.35666  -0.34519  -0.34476  -0.33562  -0.31511
 Alpha  occ. eigenvalues --   -0.28789  -0.26469  -0.26119  -0.25664  -0.24868
 Alpha  occ. eigenvalues --   -0.24513  -0.21477  -0.21381  -0.20484  -0.16102
 Alpha  occ. eigenvalues --   -0.15551  -0.14994
 Alpha virt. eigenvalues --   -0.04109  -0.02181  -0.00389   0.00220   0.01040
 Alpha virt. eigenvalues --    0.01452   0.02083   0.03614   0.05427   0.05960
 Alpha virt. eigenvalues --    0.06750   0.07637   0.09291   0.09300   0.10148

  Beta  occ. eigenvalues --  -14.45506 -14.45506 -14.44735 -14.44734 -10.27483
  Beta  occ. eigenvalues --  -10.27482 -10.27374 -10.27373 -10.27210 -10.27209
  Beta  occ. eigenvalues --  -10.27186 -10.27185 -10.24820 -10.24819 -10.24127
  Beta  occ. eigenvalues --  -10.24127 -10.23872 -10.23872 -10.23406 -10.23406
  Beta  occ. eigenvalues --  -10.23348 -10.23348 -10.21470 -10.21466 -10.21191
  Beta  occ. eigenvalues --  -10.18342  -3.83279  -2.35258  -2.34831  -2.31226
  Beta  occ. eigenvalues --   -1.06152  -1.06077  -0.96378  -0.95976  -0.88160
  Beta  occ. eigenvalues --   -0.87899  -0.85120  -0.79863  -0.78593  -0.77846
  Beta  occ. eigenvalues --   -0.77811  -0.75708  -0.75104  -0.72695  -0.72298
  Beta  occ. eigenvalues --   -0.66402  -0.64956  -0.64455  -0.63709  -0.62780
  Beta  occ. eigenvalues --   -0.61240  -0.58835  -0.57450  -0.56279  -0.53976
  Beta  occ. eigenvalues --   -0.53122  -0.51769  -0.49630  -0.49568  -0.49031
  Beta  occ. eigenvalues --   -0.47801  -0.47527  -0.47048  -0.46782  -0.45978
  Beta  occ. eigenvalues --   -0.45899  -0.44988  -0.44860  -0.44416  -0.43896
  Beta  occ. eigenvalues --   -0.42086  -0.41996  -0.41391  -0.38518  -0.38482
  Beta  occ. eigenvalues --   -0.38393  -0.37424  -0.37283  -0.36615  -0.36472
  Beta  occ. eigenvalues --   -0.35666  -0.34519  -0.34476  -0.33562  -0.31511
  Beta  occ. eigenvalues --   -0.28789  -0.26469  -0.26119  -0.25664  -0.24868
  Beta  occ. eigenvalues --   -0.24513  -0.21477  -0.21381  -0.20484  -0.16102
  Beta  occ. eigenvalues --   -0.15551  -0.14994
  Beta virt. eigenvalues --   -0.04109  -0.02181  -0.00389   0.00220   0.01040
  Beta virt. eigenvalues --    0.01452   0.02083   0.03614   0.05427   0.05960
  Beta virt. eigenvalues --    0.06750   0.07637   0.09291   0.09300   0.10148

 Mulliken charges and spin densities:
               1          2
     1  C   -0.203258  -0.000000
     2  C    0.295917   0.000000
     3  C   -0.188289  -0.000000
     4  C   -0.207992   0.000000
     5  C   -0.188289  -0.000000
     6  C    0.295917   0.000000
     7  H    0.163259  -0.000000
     8  H    0.158130  -0.000000
     9  H    0.163259  -0.000000
    10  C    0.312705   0.000000
    11  C    0.409148  -0.000000
    12  C    0.282421  -0.000000
    13  C   -0.185736  -0.000000
    14  C   -0.206245  -0.000000
    15  C   -0.187812  -0.000000
    16  H    0.195176   0.000000
    17  C   -0.186688  -0.000000
    18  H    0.176542   0.000000
    19  H    0.172880   0.000000
    20  H    0.171284  -0.000000
    21  C    0.312706  -0.000000
    22  C    0.409148  -0.000000
    23  C    0.282421   0.000000
    24  C   -0.185736  -0.000000
    25  C   -0.206245  -0.000000
    26  C   -0.187812  -0.000000
    27  H    0.195176   0.000000
    28  C   -0.186688  -0.000000
    29  H    0.176542   0.000000
    30  H    0.172880   0.000000
    31  H    0.171284   0.000000
    32  N   -0.712606  -0.000000
    33  N   -0.597849  -0.000000
    34  N   -0.712606  -0.000000
    35  N   -0.597849  -0.000000
    36  C   -0.399284  -0.000000
    37  H    0.202036  -0.000000
    38  H    0.202045  -0.000000
    39  H    0.223485  -0.000000
    40  C   -0.399285  -0.000000
    41  H    0.202046  -0.000000
    42  H    0.202035  -0.000000
    43  H    0.223485  -0.000000
    44  Co  -0.031663   0.000000
 Sum of Mulliken charges =  -0.00000  -0.00000

 Dipole moment (field-independent basis, Debye):
    X=              0.0000    Y=             -3.5304    Z=             -0.0001  Tot=              3.5304
 Quadrupole moment (field-independent basis, Debye-Ang):
   XX=           -127.0396   YY=           -134.1056   ZZ=           -172.0877
   XY=             -0.0000   XZ=             -0.0005   YZ=             -0.0001

 Normal termination of Gaussian 16 at Wed Jul 17 20:35:30 2024.
