 Gaussian 16, Revision C.01,
 Gaussian 16:  ES64L-G16RevC.01  3-Jul-2019

 ----------------------------------------------------------------------
 # pbe1pbe em=gd3bj genecp g09default scf=(xqc,maxcycle=64) force guess
 =read nosymm
 ----------------------------------------------------------------------

 ----------
 Title Card
 ----------
 Symbolic Z-matrix:
 Charge =  0 Multiplicity = 3

                          Input orientation:
 ---------------------------------------------------------------------
 Center     Atomic      Atomic             Coordinates (Angstroms)
 Number     Number       Type             X           Y           Z
 ---------------------------------------------------------------------
      1          6           0        0.000002    0.680015    0.000082
      2          6           0       -1.216419    1.356950    0.000036
      3          6           0       -1.231548    2.748520   -0.000001
      4          6           0        0.000001    3.416063    0.000013
      5          6           0        1.231550    2.748521    0.000051
      6          6           0        1.216422    1.356951    0.000080
      7          1           0       -2.151343    3.322127   -0.000045
      8          1           0        0.000001    4.502271   -0.000011
      9          1           0        2.151345    3.322128    0.000051
     10          6           0        3.657878    0.575868   -0.000020
     11          6           0        1.890767   -0.896589    0.000090
     12          6           0        4.162974   -0.739580   -0.000102
     13          6           0        4.522762    1.663789   -0.000051
     14          6           0        5.526638   -1.001681   -0.000206
     15          6           0        5.894577    1.400531   -0.000168
     16          1           0        4.158989    2.683783    0.000014
     17          6           0        6.389343    0.095571   -0.000241
     18          1           0        5.907085   -2.018465   -0.000251
     19          1           0        6.589482    2.234959   -0.000196
     20          1           0        7.462317   -0.071107   -0.000322
     21          6           0       -3.657875    0.575864   -0.000031
     22          6           0       -1.890761   -0.896590    0.000034
     23          6           0       -4.162968   -0.739585   -0.000064
     24          6           0       -4.522760    1.663783   -0.000049
     25          6           0       -5.526632   -1.001689   -0.000104
     26          6           0       -5.894575    1.400523   -0.000096
     27          1           0       -4.158989    2.683778   -0.000021
     28          6           0       -6.389338    0.095562   -0.000121
     29          1           0       -5.907078   -2.018473   -0.000111
     30          1           0       -6.589481    2.234949   -0.000109
     31          1           0       -7.462313   -0.071118   -0.000150
     32          7           0       -2.280669    0.445569    0.000011
     33          7           0       -3.072576   -1.590161   -0.000037
     34          7           0        2.280672    0.445570    0.000092
     35          7           0        3.072583   -1.590157   -0.000047
     36          6           0        3.173546   -3.023055    0.000003
     37          1           0        3.703487   -3.376196   -0.892080
     38          1           0        3.703069   -3.376194    0.892338
     39          1           0        2.165681   -3.442111   -0.000241
     40          6           0       -3.173536   -3.023058    0.000041
     41          1           0       -3.702998   -3.376187    0.892417
     42          1           0       -3.703537   -3.376213   -0.892001
     43          1           0       -2.165671   -3.442113   -0.000268
     44         27           0        0.000002   -1.169246    0.000131
 ---------------------------------------------------------------------

 SCF Done:  E(UPBE1PBE) =  -1212.13785277     A.U. after    3 cycles

 Alpha  occ. eigenvalues --  -14.45070 -14.45070 -14.44610 -14.44609 -10.27368
 Alpha  occ. eigenvalues --  -10.27368 -10.27244 -10.27243 -10.27176 -10.27175
 Alpha  occ. eigenvalues --  -10.26938 -10.26938 -10.26213 -10.26213 -10.23622
 Alpha  occ. eigenvalues --  -10.23622 -10.23467 -10.23467 -10.22987 -10.22987
 Alpha  occ. eigenvalues --  -10.22897 -10.22897 -10.22516 -10.22279 -10.22274
 Alpha  occ. eigenvalues --  -10.19820  -3.93712  -2.46459  -2.43681  -2.42817
 Alpha  occ. eigenvalues --   -1.06070  -1.05978  -0.96513  -0.96029  -0.88042
 Alpha  occ. eigenvalues --   -0.87603  -0.85787  -0.80048  -0.78821  -0.77647
 Alpha  occ. eigenvalues --   -0.77538  -0.75694  -0.75053  -0.73029  -0.72839
 Alpha  occ. eigenvalues --   -0.66614  -0.65102  -0.64309  -0.63799  -0.62906
 Alpha  occ. eigenvalues --   -0.61238  -0.58832  -0.57957  -0.56240  -0.53836
 Alpha  occ. eigenvalues --   -0.53042  -0.52032  -0.49741  -0.49654  -0.49356
 Alpha  occ. eigenvalues --   -0.48081  -0.47335  -0.47155  -0.46908  -0.45828
 Alpha  occ. eigenvalues --   -0.45738  -0.45063  -0.44767  -0.44746  -0.44030
 Alpha  occ. eigenvalues --   -0.42435  -0.42065  -0.41641  -0.39000  -0.38932
 Alpha  occ. eigenvalues --   -0.38641  -0.38089  -0.37468  -0.37278  -0.36696
 Alpha  occ. eigenvalues --   -0.36171  -0.34857  -0.34725  -0.33758  -0.32191
 Alpha  occ. eigenvalues --   -0.31832  -0.30171  -0.30165  -0.27247  -0.26986
 Alpha  occ. eigenvalues --   -0.26548  -0.26014  -0.24610  -0.23819  -0.22950
 Alpha  occ. eigenvalues --   -0.20883  -0.20848  -0.09778
 Alpha virt. eigenvalues --   -0.05766  -0.02137  -0.00045   0.00246   0.00371
 Alpha virt. eigenvalues --    0.02335   0.03011   0.03796   0.04461   0.05631
 Alpha virt. eigenvalues --    0.06510   0.07891   0.07963   0.09815   0.10262

  Beta  occ. eigenvalues --  -14.44933 -14.44933 -14.44580 -14.44579 -10.27252
  Beta  occ. eigenvalues --  -10.27252 -10.27182 -10.27182 -10.27161 -10.27160
  Beta  occ. eigenvalues --  -10.26974 -10.26973 -10.26059 -10.26059 -10.23565
  Beta  occ. eigenvalues --  -10.23565 -10.23438 -10.23438 -10.22988 -10.22988
  Beta  occ. eigenvalues --  -10.22867 -10.22867 -10.22401 -10.22382 -10.22319
  Beta  occ. eigenvalues --  -10.20123  -3.87166  -2.38897  -2.38126  -2.34833
  Beta  occ. eigenvalues --   -1.05861  -1.05768  -0.96304  -0.95806  -0.87984
  Beta  occ. eigenvalues --   -0.87526  -0.85741  -0.79948  -0.78762  -0.77582
  Beta  occ. eigenvalues --   -0.77459  -0.75544  -0.74859  -0.73026  -0.72869
  Beta  occ. eigenvalues --   -0.66630  -0.64818  -0.64082  -0.63809  -0.62832
  Beta  occ. eigenvalues --   -0.61135  -0.58790  -0.57891  -0.56201  -0.53780
  Beta  occ. eigenvalues --   -0.53003  -0.51958  -0.49378  -0.49271  -0.49203
  Beta  occ. eigenvalues --   -0.48002  -0.47296  -0.47133  -0.46834  -0.45788
  Beta  occ. eigenvalues --   -0.45721  -0.45011  -0.44748  -0.44344  -0.43722
  Beta  occ. eigenvalues --   -0.42444  -0.42035  -0.41634  -0.39036  -0.38626
  Beta  occ. eigenvalues --   -0.38475  -0.37564  -0.37263  -0.36656  -0.36252
  Beta  occ. eigenvalues --   -0.36146  -0.34852  -0.34168  -0.33106  -0.31440
  Beta  occ. eigenvalues --   -0.30559  -0.29577  -0.26307  -0.26051  -0.25212
  Beta  occ. eigenvalues --   -0.24698  -0.23940  -0.22120  -0.21031  -0.20533
  Beta  occ. eigenvalues --   -0.19991
  Beta virt. eigenvalues --   -0.04529  -0.04185  -0.01371  -0.00289   0.00146
  Beta virt. eigenvalues --    0.01256   0.01775   0.02484   0.03765   0.05644
  Beta virt. eigenvalues --    0.06005   0.06056   0.08146   0.09148   0.09180

 Mulliken charges and spin densities:
               1          2
     1  C   -0.291899  -0.178259
     2  C    0.341361   0.101365
     3  C   -0.189154  -0.074908
     4  C   -0.203106   0.128501
     5  C   -0.189154  -0.074908
     6  C    0.341361   0.101365
     7  H    0.172798   0.000735
     8  H    0.166268  -0.006703
     9  H    0.172798   0.000735
    10  C    0.313418  -0.003661
    11  C    0.374903   0.179162
    12  C    0.285573  -0.021026
    13  C   -0.190785   0.018621
    14  C   -0.212492   0.041153
    15  C   -0.189677   0.020558
    16  H    0.189344  -0.001163
    17  C   -0.186250  -0.004450
    18  H    0.173044  -0.002179
    19  H    0.169625  -0.001285
    20  H    0.168734  -0.000095
    21  C    0.313420  -0.003661
    22  C    0.374902   0.179163
    23  C    0.285572  -0.021026
    24  C   -0.190785   0.018621
    25  C   -0.212492   0.041153
    26  C   -0.189676   0.020559
    27  H    0.189344  -0.001163
    28  C   -0.186251  -0.004450
    29  H    0.173044  -0.002179
    30  H    0.169625  -0.001285
    31  H    0.168734  -0.000095
    32  N   -0.718886  -0.003094
    33  N   -0.602925   0.041013
    34  N   -0.718885  -0.003095
    35  N   -0.602926   0.041013
    36  C   -0.397781  -0.004577
    37  H    0.202601   0.002150
    38  H    0.202609   0.002154
    39  H    0.214134  -0.000498
    40  C   -0.397781  -0.004577
    41  H    0.202609   0.002154
    42  H    0.202601   0.002150
    43  H    0.214134  -0.000498
    44  Co   0.088350   1.476510
 Sum of Mulliken charges =  -0.00000   2.00000

 Dipole moment (field-independent basis, Debye):
    X=              0.0000    Y=             -3.3567    Z=             -0.0003  Tot=              3.3567
 Quadrupole moment (field-independent basis, Debye-Ang):
   XX=           -136.9393   YY=           -132.2805   ZZ=           -173.8291
   XY=             -0.0000   XZ=             -0.0004   YZ=              0.0004

 Optimization completed.
    -- Stationary point found.
 Normal termination of Gaussian 16 at Wed Jul 17 20:34:36 2024.
