 Gaussian 16, Revision C.01,
 Gaussian 16:  ES64L-G16RevC.01  3-Jul-2019

 ----------------------------------------------------------------------
 # pbe1pbe em=gd3bj genecp g09default scf=(xqc,maxcycle=64) force guess
 =read nosymm
 ----------------------------------------------------------------------

 ----------
 Title Card
 ----------
 Symbolic Z-matrix:
 Charge =  0 Multiplicity = 1

                          Input orientation:
 ---------------------------------------------------------------------
 Center     Atomic      Atomic             Coordinates (Angstroms)
 Number     Number       Type             X           Y           Z
 ---------------------------------------------------------------------
      1          6           0        0.000000    0.708353    0.000075
      2          6           0       -1.258179    1.351375    0.000050
      3          6           0       -1.243223    2.746097   -0.000004
      4          6           0        0.000003    3.394058    0.000013
      5          6           0        1.243222    2.746098    0.000048
      6          6           0        1.258186    1.351373    0.000092
      7          1           0       -2.159215    3.326995   -0.000046
      8          1           0        0.000001    4.487744   -0.000011
      9          1           0        2.159218    3.326997    0.000049
     10          6           0        3.664634    0.582474   -0.000018
     11          6           0        1.889897   -0.898434    0.000109
     12          6           0        4.160760   -0.742691   -0.000095
     13          6           0        4.525526    1.664772   -0.000053
     14          6           0        5.528417   -1.001465   -0.000201
     15          6           0        5.907231    1.400759   -0.000170
     16          1           0        4.160998    2.683653    0.000013
     17          6           0        6.392692    0.100256   -0.000241
     18          1           0        5.907132   -2.019440   -0.000249
     19          1           0        6.595573    2.236827   -0.000196
     20          1           0        7.465044   -0.070737   -0.000324
     21          6           0       -3.664635    0.582476   -0.000030
     22          6           0       -1.889886   -0.898433    0.000068
     23          6           0       -4.160749   -0.742693   -0.000065
     24          6           0       -4.525519    1.664758   -0.000051
     25          6           0       -5.528417   -1.001474   -0.000102
     26          6           0       -5.907233    1.400753   -0.000098
     27          1           0       -4.160998    2.683650   -0.000022
     28          6           0       -6.392682    0.100246   -0.000121
     29          1           0       -5.907124   -2.019448   -0.000109
     30          1           0       -6.595571    2.236816   -0.000108
     31          1           0       -7.465042   -0.070748   -0.000151
     32          7           0       -2.282869    0.468477    0.000008
     33          7           0       -3.088123   -1.597419   -0.000047
     34          7           0        2.282868    0.468481    0.000083
     35          7           0        3.088127   -1.597406   -0.000054
     36          6           0        3.179270   -3.019910    0.000006
     37          1           0        3.704624   -3.382701   -0.893311
     38          1           0        3.704201   -3.382707    0.893575
     39          1           0        2.171209   -3.444870   -0.000247
     40          6           0       -3.179258   -3.019909    0.000043
     41          1           0       -3.704130   -3.382698    0.893655
     42          1           0       -3.704675   -3.382720   -0.893232
     43          1           0       -2.171199   -3.444872   -0.000274
     44         27           0        0.000001   -1.178634    0.000084
 ---------------------------------------------------------------------

 SCF Done:  E(UPBE1PBE) =  -1212.13869878     A.U. after   17 cycles

 Alpha  occ. eigenvalues --  -14.45738 -14.45738 -14.44965 -14.44964 -10.28023
 Alpha  occ. eigenvalues --  -10.28022 -10.27516 -10.27515 -10.27397 -10.27397
 Alpha  occ. eigenvalues --  -10.27315 -10.27315 -10.24813 -10.24813 -10.24164
 Alpha  occ. eigenvalues --  -10.24164 -10.23884 -10.23884 -10.23414 -10.23414
 Alpha  occ. eigenvalues --  -10.23351 -10.23351 -10.21294 -10.21289 -10.21056
 Alpha  occ. eigenvalues --  -10.18899  -3.83571  -2.35391  -2.35185  -2.31573
 Alpha  occ. eigenvalues --   -1.06119  -1.06043  -0.97216  -0.96871  -0.88134
 Alpha  occ. eigenvalues --   -0.87891  -0.84682  -0.80299  -0.78778  -0.77850
 Alpha  occ. eigenvalues --   -0.77842  -0.75604  -0.75070  -0.72726  -0.71836
 Alpha  occ. eigenvalues --   -0.66647  -0.65271  -0.64573  -0.63877  -0.62704
 Alpha  occ. eigenvalues --   -0.61422  -0.58774  -0.57252  -0.56511  -0.54104
 Alpha  occ. eigenvalues --   -0.53179  -0.51785  -0.49780  -0.49718  -0.49029
 Alpha  occ. eigenvalues --   -0.48014  -0.47759  -0.47402  -0.46720  -0.46102
 Alpha  occ. eigenvalues --   -0.45785  -0.45168  -0.45007  -0.44658  -0.44109
 Alpha  occ. eigenvalues --   -0.42218  -0.41946  -0.40970  -0.38448  -0.38426
 Alpha  occ. eigenvalues --   -0.38288  -0.37483  -0.36841  -0.36798  -0.36641
 Alpha  occ. eigenvalues --   -0.35783  -0.34440  -0.34375  -0.33798  -0.31447
 Alpha  occ. eigenvalues --   -0.29048  -0.26574  -0.26040  -0.24804  -0.24745
 Alpha  occ. eigenvalues --   -0.24403  -0.21214  -0.20957  -0.20690  -0.16148
 Alpha  occ. eigenvalues --   -0.15700  -0.15333
 Alpha virt. eigenvalues --   -0.04676  -0.02392  -0.00557   0.00048   0.00866
 Alpha virt. eigenvalues --    0.01374   0.02062   0.03439   0.05461   0.05875
 Alpha virt. eigenvalues --    0.06612   0.07418   0.09320   0.09383   0.10182

  Beta  occ. eigenvalues --  -14.45738 -14.45738 -14.44965 -14.44964 -10.28023
  Beta  occ. eigenvalues --  -10.28022 -10.27516 -10.27515 -10.27397 -10.27397
  Beta  occ. eigenvalues --  -10.27315 -10.27315 -10.24813 -10.24813 -10.24164
  Beta  occ. eigenvalues --  -10.24164 -10.23884 -10.23884 -10.23414 -10.23414
  Beta  occ. eigenvalues --  -10.23351 -10.23351 -10.21294 -10.21289 -10.21056
  Beta  occ. eigenvalues --  -10.18899  -3.83571  -2.35391  -2.35185  -2.31573
  Beta  occ. eigenvalues --   -1.06119  -1.06043  -0.97216  -0.96871  -0.88134
  Beta  occ. eigenvalues --   -0.87891  -0.84682  -0.80299  -0.78778  -0.77850
  Beta  occ. eigenvalues --   -0.77842  -0.75604  -0.75070  -0.72726  -0.71836
  Beta  occ. eigenvalues --   -0.66647  -0.65271  -0.64573  -0.63877  -0.62704
  Beta  occ. eigenvalues --   -0.61422  -0.58774  -0.57252  -0.56511  -0.54104
  Beta  occ. eigenvalues --   -0.53179  -0.51785  -0.49780  -0.49718  -0.49029
  Beta  occ. eigenvalues --   -0.48014  -0.47759  -0.47402  -0.46720  -0.46102
  Beta  occ. eigenvalues --   -0.45785  -0.45168  -0.45007  -0.44658  -0.44109
  Beta  occ. eigenvalues --   -0.42218  -0.41946  -0.40970  -0.38448  -0.38426
  Beta  occ. eigenvalues --   -0.38288  -0.37483  -0.36841  -0.36798  -0.36641
  Beta  occ. eigenvalues --   -0.35783  -0.34440  -0.34375  -0.33798  -0.31447
  Beta  occ. eigenvalues --   -0.29048  -0.26574  -0.26040  -0.24804  -0.24745
  Beta  occ. eigenvalues --   -0.24403  -0.21214  -0.20957  -0.20690  -0.16148
  Beta  occ. eigenvalues --   -0.15700  -0.15333
  Beta virt. eigenvalues --   -0.04676  -0.02392  -0.00557   0.00048   0.00866
  Beta virt. eigenvalues --    0.01374   0.02062   0.03439   0.05461   0.05875
  Beta virt. eigenvalues --    0.06612   0.07418   0.09320   0.09383   0.10182

 Mulliken charges and spin densities:
               1          2
     1  C   -0.213390  -0.000000
     2  C    0.316361  -0.000000
     3  C   -0.194487  -0.000000
     4  C   -0.201606  -0.000000
     5  C   -0.194484  -0.000000
     6  C    0.316359  -0.000000
     7  H    0.160144  -0.000000
     8  H    0.154565   0.000000
     9  H    0.160143  -0.000000
    10  C    0.312813  -0.000000
    11  C    0.396706  -0.000000
    12  C    0.288917   0.000000
    13  C   -0.190261  -0.000000
    14  C   -0.209561  -0.000000
    15  C   -0.187508  -0.000000
    16  H    0.196516   0.000000
    17  C   -0.184386   0.000000
    18  H    0.176393   0.000000
    19  H    0.173535   0.000000
    20  H    0.171007  -0.000000
    21  C    0.312832  -0.000000
    22  C    0.396701  -0.000000
    23  C    0.288903   0.000000
    24  C   -0.190271  -0.000000
    25  C   -0.209554  -0.000000
    26  C   -0.187506  -0.000000
    27  H    0.196516   0.000000
    28  C   -0.184388   0.000000
    29  H    0.176393   0.000000
    30  H    0.173535   0.000000
    31  H    0.171005  -0.000000
    32  N   -0.709662   0.000000
    33  N   -0.590377  -0.000000
    34  N   -0.709653   0.000000
    35  N   -0.590384  -0.000000
    36  C   -0.402666   0.000000
    37  H    0.201946  -0.000000
    38  H    0.201955  -0.000000
    39  H    0.223862   0.000000
    40  C   -0.402668   0.000000
    41  H    0.201954  -0.000000
    42  H    0.201943  -0.000000
    43  H    0.223861   0.000000
    44  Co  -0.042053   0.000001
 Sum of Mulliken charges =  -0.00000   0.00000

 Dipole moment (field-independent basis, Debye):
    X=              0.0002    Y=             -3.8087    Z=             -0.0002  Tot=              3.8087
 Quadrupole moment (field-independent basis, Debye-Ang):
   XX=           -127.1739   YY=           -134.7536   ZZ=           -172.1322
   XY=             -0.0004   XZ=             -0.0005   YZ=              0.0002

 Normal termination of Gaussian 16 at Wed Jul 17 20:49:56 2024.
