 Gaussian 16, Revision C.01,
 Gaussian 16:  ES64L-G16RevC.01  3-Jul-2019

 ----------------------------------------------------------------------
 # pbe1pbe em=gd3bj genecp g09default scf=(xqc,maxcycle=64) force guess
 =read nosymm
 ----------------------------------------------------------------------

 ----------
 Title Card
 ----------
 Symbolic Z-matrix:
 Charge =  0 Multiplicity = 3

                          Input orientation:
 ---------------------------------------------------------------------
 Center     Atomic      Atomic             Coordinates (Angstroms)
 Number     Number       Type             X           Y           Z
 ---------------------------------------------------------------------
      1          6           0        0.000000    0.708353    0.000075
      2          6           0       -1.258179    1.351375    0.000050
      3          6           0       -1.243223    2.746097   -0.000004
      4          6           0        0.000003    3.394058    0.000013
      5          6           0        1.243222    2.746098    0.000048
      6          6           0        1.258186    1.351373    0.000092
      7          1           0       -2.159215    3.326995   -0.000046
      8          1           0        0.000001    4.487744   -0.000011
      9          1           0        2.159218    3.326997    0.000049
     10          6           0        3.664634    0.582474   -0.000018
     11          6           0        1.889897   -0.898434    0.000109
     12          6           0        4.160760   -0.742691   -0.000095
     13          6           0        4.525526    1.664772   -0.000053
     14          6           0        5.528417   -1.001465   -0.000201
     15          6           0        5.907231    1.400759   -0.000170
     16          1           0        4.160998    2.683653    0.000013
     17          6           0        6.392692    0.100256   -0.000241
     18          1           0        5.907132   -2.019440   -0.000249
     19          1           0        6.595573    2.236827   -0.000196
     20          1           0        7.465044   -0.070737   -0.000324
     21          6           0       -3.664635    0.582476   -0.000030
     22          6           0       -1.889886   -0.898433    0.000068
     23          6           0       -4.160749   -0.742693   -0.000065
     24          6           0       -4.525519    1.664758   -0.000051
     25          6           0       -5.528417   -1.001474   -0.000102
     26          6           0       -5.907233    1.400753   -0.000098
     27          1           0       -4.160998    2.683650   -0.000022
     28          6           0       -6.392682    0.100246   -0.000121
     29          1           0       -5.907124   -2.019448   -0.000109
     30          1           0       -6.595571    2.236816   -0.000108
     31          1           0       -7.465042   -0.070748   -0.000151
     32          7           0       -2.282869    0.468477    0.000008
     33          7           0       -3.088123   -1.597419   -0.000047
     34          7           0        2.282868    0.468481    0.000083
     35          7           0        3.088127   -1.597406   -0.000054
     36          6           0        3.179270   -3.019910    0.000006
     37          1           0        3.704624   -3.382701   -0.893311
     38          1           0        3.704201   -3.382707    0.893575
     39          1           0        2.171209   -3.444870   -0.000247
     40          6           0       -3.179258   -3.019909    0.000043
     41          1           0       -3.704130   -3.382698    0.893655
     42          1           0       -3.704675   -3.382720   -0.893232
     43          1           0       -2.171199   -3.444872   -0.000274
     44         27           0        0.000001   -1.178634    0.000084
 ---------------------------------------------------------------------

 SCF Done:  E(UPBE1PBE) =  -1212.13021711     A.U. after   34 cycles

 Alpha  occ. eigenvalues --  -14.45246 -14.45246 -14.44756 -14.44756 -10.27810
 Alpha  occ. eigenvalues --  -10.27809 -10.27328 -10.27327 -10.27298 -10.27298
 Alpha  occ. eigenvalues --  -10.27103 -10.27103 -10.26184 -10.26184 -10.23671
 Alpha  occ. eigenvalues --  -10.23671 -10.23503 -10.23503 -10.23008 -10.23008
 Alpha  occ. eigenvalues --  -10.22905 -10.22905 -10.22428 -10.22133 -10.22130
 Alpha  occ. eigenvalues --  -10.20244  -3.93670  -2.46323  -2.43676  -2.42846
 Alpha  occ. eigenvalues --   -1.06006  -1.05912  -0.97295  -0.96889  -0.87978
 Alpha  occ. eigenvalues --   -0.87597  -0.85337  -0.80418  -0.78946  -0.77654
 Alpha  occ. eigenvalues --   -0.77579  -0.75573  -0.74974  -0.73036  -0.72349
 Alpha  occ. eigenvalues --   -0.66849  -0.65457  -0.64426  -0.63925  -0.62814
 Alpha  occ. eigenvalues --   -0.61388  -0.58738  -0.57706  -0.56460  -0.53944
 Alpha  occ. eigenvalues --   -0.53078  -0.52047  -0.49856  -0.49770  -0.49178
 Alpha  occ. eigenvalues --   -0.48363  -0.47994  -0.47208  -0.46838  -0.45877
 Alpha  occ. eigenvalues --   -0.45693  -0.45246  -0.44964  -0.44791  -0.44234
 Alpha  occ. eigenvalues --   -0.42490  -0.41981  -0.41270  -0.38863  -0.38575
 Alpha  occ. eigenvalues --   -0.38552  -0.38175  -0.37284  -0.37167  -0.36916
 Alpha  occ. eigenvalues --   -0.36321  -0.34852  -0.34537  -0.33961  -0.32092
 Alpha  occ. eigenvalues --   -0.31746  -0.30318  -0.29186  -0.27113  -0.27022
 Alpha  occ. eigenvalues --   -0.26582  -0.25992  -0.24522  -0.23838  -0.22801
 Alpha  occ. eigenvalues --   -0.20606  -0.20285  -0.10369
 Alpha virt. eigenvalues --   -0.05890  -0.02637  -0.00110   0.00211   0.00311
 Alpha virt. eigenvalues --    0.02306   0.02851   0.03914   0.04386   0.05575
 Alpha virt. eigenvalues --    0.06307   0.08038   0.08088   0.09851   0.10295

  Beta  occ. eigenvalues --  -14.45107 -14.45107 -14.44730 -14.44729 -10.27568
  Beta  occ. eigenvalues --  -10.27567 -10.27337 -10.27336 -10.27299 -10.27298
  Beta  occ. eigenvalues --  -10.27139 -10.27139 -10.26037 -10.26037 -10.23613
  Beta  occ. eigenvalues --  -10.23613 -10.23483 -10.23483 -10.23015 -10.23015
  Beta  occ. eigenvalues --  -10.22871 -10.22871 -10.22288 -10.22238 -10.22216
  Beta  occ. eigenvalues --  -10.20586  -3.86945  -2.38479  -2.37946  -2.34748
  Beta  occ. eigenvalues --   -1.05785  -1.05689  -0.97080  -0.96659  -0.87923
  Beta  occ. eigenvalues --   -0.87522  -0.85316  -0.80319  -0.78894  -0.77593
  Beta  occ. eigenvalues --   -0.77508  -0.75408  -0.74757  -0.73036  -0.72405
  Beta  occ. eigenvalues --   -0.66875  -0.65220  -0.64169  -0.63908  -0.62746
  Beta  occ. eigenvalues --   -0.61287  -0.58700  -0.57672  -0.56424  -0.53894
  Beta  occ. eigenvalues --   -0.53044  -0.51978  -0.49371  -0.49303  -0.49125
  Beta  occ. eigenvalues --   -0.48397  -0.47967  -0.47179  -0.46749  -0.45837
  Beta  occ. eigenvalues --   -0.45686  -0.45195  -0.44778  -0.44549  -0.43898
  Beta  occ. eigenvalues --   -0.42493  -0.41950  -0.41266  -0.38575  -0.38542
  Beta  occ. eigenvalues --   -0.38462  -0.37332  -0.37262  -0.36772  -0.36491
  Beta  occ. eigenvalues --   -0.36198  -0.34872  -0.33960  -0.33283  -0.31476
  Beta  occ. eigenvalues --   -0.29703  -0.29602  -0.26389  -0.25941  -0.25104
  Beta  occ. eigenvalues --   -0.24502  -0.23788  -0.21910  -0.20510  -0.20384
  Beta  occ. eigenvalues --   -0.19788
  Beta virt. eigenvalues --   -0.04876  -0.04230  -0.01254  -0.00530   0.00058
  Beta virt. eigenvalues --    0.01232   0.01670   0.02464   0.03676   0.05620
  Beta virt. eigenvalues --    0.05942   0.06046   0.07963   0.09221   0.09312

 Mulliken charges and spin densities:
               1          2
     1  C   -0.298561  -0.201946
     2  C    0.363644   0.097812
     3  C   -0.195618  -0.074917
     4  C   -0.196163   0.118767
     5  C   -0.195616  -0.074916
     6  C    0.363642   0.097814
     7  H    0.170096   0.000159
     8  H    0.163044  -0.006135
     9  H    0.170095   0.000159
    10  C    0.313165   0.000507
    11  C    0.362076   0.200678
    12  C    0.291847  -0.022041
    13  C   -0.194723   0.012477
    14  C   -0.215492   0.042152
    15  C   -0.189565   0.024201
    16  H    0.190668  -0.000853
    17  C   -0.183693  -0.008828
    18  H    0.173045  -0.002190
    19  H    0.170274  -0.001439
    20  H    0.168553   0.000132
    21  C    0.313185   0.000507
    22  C    0.362069   0.200683
    23  C    0.291832  -0.022042
    24  C   -0.194733   0.012478
    25  C   -0.215485   0.042153
    26  C   -0.189563   0.024202
    27  H    0.190668  -0.000853
    28  C   -0.183695  -0.008829
    29  H    0.173045  -0.002190
    30  H    0.170275  -0.001440
    31  H    0.168551   0.000132
    32  N   -0.717048  -0.005926
    33  N   -0.594990   0.040572
    34  N   -0.717040  -0.005928
    35  N   -0.594997   0.040574
    36  C   -0.401026  -0.004708
    37  H    0.202084   0.002311
    38  H    0.202090   0.002313
    39  H    0.214812  -0.000529
    40  C   -0.401028  -0.004708
    41  H    0.202088   0.002313
    42  H    0.202082   0.002311
    43  H    0.214811  -0.000529
    44  Co   0.071294   1.485541
 Sum of Mulliken charges =  -0.00000   2.00000

 Dipole moment (field-independent basis, Debye):
    X=              0.0002    Y=             -3.5668    Z=              0.0003  Tot=              3.5668
 Quadrupole moment (field-independent basis, Debye-Ang):
   XX=           -136.8072   YY=           -132.8522   ZZ=           -173.7367
   XY=             -0.0003   XZ=             -0.0004   YZ=             -0.0010

 Normal termination of Gaussian 16 at Wed Jul 17 20:49:20 2024.
