 Gaussian 16, Revision C.01,
 Gaussian 16:  ES64L-G16RevC.01  3-Jul-2019

 ----------------------------------------------------------------------
 # pbe1pbe em=gd3bj genecp g09default scf=(xqc,maxcycle=64) force guess
 =read nosymm
 ----------------------------------------------------------------------

 ----------
 Title Card
 ----------
 Symbolic Z-matrix:
 Charge =  0 Multiplicity = 1

                          Input orientation:
 ---------------------------------------------------------------------
 Center     Atomic      Atomic             Coordinates (Angstroms)
 Number     Number       Type             X           Y           Z
 ---------------------------------------------------------------------
      1          6           0        0.000001    0.687603    0.000112
      2          6           0       -1.237112    1.352958    0.000042
      3          6           0       -1.237673    2.748416   -0.000004
      4          6           0        0.000003    3.405590    0.000014
      5          6           0        1.237674    2.748416    0.000047
      6          6           0        1.237119    1.352956    0.000084
      7          1           0       -2.154960    3.325326   -0.000046
      8          1           0        0.000001    4.496147   -0.000011
      9          1           0        2.154963    3.325328    0.000049
     10          6           0        3.658725    0.578932   -0.000020
     11          6           0        1.888421   -0.896661    0.000107
     12          6           0        4.161586   -0.741872   -0.000100
     13          6           0        4.524369    1.664974   -0.000052
     14          6           0        5.528892   -1.001748   -0.000204
     15          6           0        5.901993    1.400690   -0.000169
     16          1           0        4.160799    2.683770    0.000013
     17          6           0        6.391817    0.098401   -0.000241
     18          1           0        5.907725   -2.019091   -0.000250
     19          1           0        6.593561    2.235901   -0.000196
     20          1           0        7.464846   -0.071046   -0.000323
     21          6           0       -3.658725    0.578931   -0.000031
     22          6           0       -1.888409   -0.896663    0.000057
     23          6           0       -4.161578   -0.741876   -0.000065
     24          6           0       -4.524366    1.664964   -0.000050
     25          6           0       -5.528889   -1.001756   -0.000104
     26          6           0       -5.901993    1.400683   -0.000097
     27          1           0       -4.160798    2.683766   -0.000021
     28          6           0       -6.391810    0.098391   -0.000121
     29          1           0       -5.907717   -2.019099   -0.000110
     30          1           0       -6.593560    2.235891   -0.000109
     31          1           0       -7.464843   -0.071057   -0.000151
     32          7           0       -2.278804    0.457248    0.000013
     33          7           0       -3.081788   -1.593258   -0.000041
     34          7           0        2.278804    0.457252    0.000091
     35          7           0        3.081792   -1.593249   -0.000051
     36          6           0        3.176752   -3.021121    0.000005
     37          1           0        3.704595   -3.379826   -0.892567
     38          1           0        3.704173   -3.379828    0.892828
     39          1           0        2.168890   -3.443334   -0.000246
     40          6           0       -3.176742   -3.021121    0.000043
     41          1           0       -3.704102   -3.379820    0.892908
     42          1           0       -3.704645   -3.379844   -0.892488
     43          1           0       -2.168880   -3.443336   -0.000273
     44         27           0        0.000001   -1.172851    0.000067
 ---------------------------------------------------------------------

 SCF Done:  E(UPBE1PBE) =  -1212.14750574     A.U. after   16 cycles

 Alpha  occ. eigenvalues --  -14.45625 -14.45624 -14.44894 -14.44893 -10.27782
 Alpha  occ. eigenvalues --  -10.27781 -10.27471 -10.27471 -10.27324 -10.27323
 Alpha  occ. eigenvalues --  -10.27255 -10.27255 -10.24819 -10.24818 -10.24152
 Alpha  occ. eigenvalues --  -10.24152 -10.23907 -10.23907 -10.23417 -10.23416
 Alpha  occ. eigenvalues --  -10.23351 -10.23351 -10.21391 -10.21387 -10.21129
 Alpha  occ. eigenvalues --  -10.18658  -3.83494  -2.35399  -2.35072  -2.31473
 Alpha  occ. eigenvalues --   -1.06135  -1.06057  -0.96846  -0.96474  -0.88089
 Alpha  occ. eigenvalues --   -0.87842  -0.84833  -0.80091  -0.78696  -0.77812
 Alpha  occ. eigenvalues --   -0.77789  -0.75632  -0.75054  -0.72674  -0.72068
 Alpha  occ. eigenvalues --   -0.66555  -0.65130  -0.64518  -0.63795  -0.62728
 Alpha  occ. eigenvalues --   -0.61333  -0.58793  -0.57316  -0.56392  -0.54044
 Alpha  occ. eigenvalues --   -0.53149  -0.51763  -0.49695  -0.49632  -0.49012
 Alpha  occ. eigenvalues --   -0.47971  -0.47559  -0.47255  -0.46752  -0.46002
 Alpha  occ. eigenvalues --   -0.45845  -0.45044  -0.44978  -0.44543  -0.44002
 Alpha  occ. eigenvalues --   -0.42143  -0.41974  -0.41139  -0.38470  -0.38402
 Alpha  occ. eigenvalues --   -0.38366  -0.37443  -0.37013  -0.36730  -0.36591
 Alpha  occ. eigenvalues --   -0.35788  -0.34483  -0.34410  -0.33677  -0.31470
 Alpha  occ. eigenvalues --   -0.28957  -0.26498  -0.26089  -0.25381  -0.24814
 Alpha  occ. eigenvalues --   -0.24419  -0.21326  -0.21204  -0.20648  -0.16139
 Alpha  occ. eigenvalues --   -0.15673  -0.15235
 Alpha virt. eigenvalues --   -0.04446  -0.02302  -0.00492   0.00095   0.00927
 Alpha virt. eigenvalues --    0.01408   0.02081   0.03516   0.05445   0.05913
 Alpha virt. eigenvalues --    0.06688   0.07510   0.09293   0.09364   0.10186

  Beta  occ. eigenvalues --  -14.45625 -14.45624 -14.44894 -14.44893 -10.27782
  Beta  occ. eigenvalues --  -10.27781 -10.27471 -10.27471 -10.27324 -10.27323
  Beta  occ. eigenvalues --  -10.27255 -10.27255 -10.24819 -10.24818 -10.24152
  Beta  occ. eigenvalues --  -10.24152 -10.23907 -10.23907 -10.23417 -10.23416
  Beta  occ. eigenvalues --  -10.23351 -10.23351 -10.21391 -10.21387 -10.21129
  Beta  occ. eigenvalues --  -10.18658  -3.83494  -2.35399  -2.35072  -2.31473
  Beta  occ. eigenvalues --   -1.06135  -1.06057  -0.96846  -0.96474  -0.88089
  Beta  occ. eigenvalues --   -0.87842  -0.84833  -0.80091  -0.78696  -0.77812
  Beta  occ. eigenvalues --   -0.77789  -0.75632  -0.75054  -0.72674  -0.72068
  Beta  occ. eigenvalues --   -0.66555  -0.65130  -0.64518  -0.63795  -0.62728
  Beta  occ. eigenvalues --   -0.61333  -0.58793  -0.57316  -0.56392  -0.54044
  Beta  occ. eigenvalues --   -0.53149  -0.51763  -0.49695  -0.49632  -0.49012
  Beta  occ. eigenvalues --   -0.47971  -0.47559  -0.47255  -0.46752  -0.46002
  Beta  occ. eigenvalues --   -0.45845  -0.45044  -0.44978  -0.44543  -0.44002
  Beta  occ. eigenvalues --   -0.42143  -0.41974  -0.41139  -0.38470  -0.38402
  Beta  occ. eigenvalues --   -0.38366  -0.37443  -0.37013  -0.36730  -0.36591
  Beta  occ. eigenvalues --   -0.35788  -0.34483  -0.34410  -0.33677  -0.31470
  Beta  occ. eigenvalues --   -0.28957  -0.26498  -0.26089  -0.25381  -0.24814
  Beta  occ. eigenvalues --   -0.24419  -0.21326  -0.21204  -0.20648  -0.16139
  Beta  occ. eigenvalues --   -0.15673  -0.15235
  Beta virt. eigenvalues --   -0.04446  -0.02302  -0.00492   0.00095   0.00927
  Beta virt. eigenvalues --    0.01408   0.02081   0.03516   0.05445   0.05913
  Beta virt. eigenvalues --    0.06688   0.07510   0.09293   0.09364   0.10186

 Mulliken charges and spin densities:
               1          2
     1  C   -0.211871   0.000000
     2  C    0.304350  -0.000000
     3  C   -0.190247   0.000000
     4  C   -0.205288  -0.000000
     5  C   -0.190245   0.000000
     6  C    0.304349  -0.000000
     7  H    0.161926   0.000000
     8  H    0.156271   0.000000
     9  H    0.161926   0.000000
    10  C    0.310784  -0.000000
    11  C    0.401373   0.000000
    12  C    0.286798  -0.000000
    13  C   -0.188251   0.000000
    14  C   -0.207343   0.000000
    15  C   -0.187261  -0.000000
    16  H    0.195646  -0.000000
    17  C   -0.185488   0.000000
    18  H    0.176457  -0.000000
    19  H    0.173248   0.000000
    20  H    0.171159  -0.000000
    21  C    0.310796  -0.000000
    22  C    0.401369   0.000000
    23  C    0.286791  -0.000000
    24  C   -0.188256   0.000000
    25  C   -0.207340   0.000000
    26  C   -0.187260  -0.000000
    27  H    0.195645  -0.000000
    28  C   -0.185489   0.000000
    29  H    0.176457  -0.000000
    30  H    0.173249   0.000000
    31  H    0.171158  -0.000000
    32  N   -0.708966   0.000000
    33  N   -0.595296   0.000000
    34  N   -0.708960   0.000000
    35  N   -0.595299   0.000000
    36  C   -0.400993   0.000000
    37  H    0.201900   0.000000
    38  H    0.201910   0.000000
    39  H    0.223531   0.000000
    40  C   -0.400994   0.000000
    41  H    0.201909   0.000000
    42  H    0.201898   0.000000
    43  H    0.223530   0.000000
    44  Co  -0.029585  -0.000001
 Sum of Mulliken charges =  -0.00000  -0.00000

 Dipole moment (field-independent basis, Debye):
    X=              0.0001    Y=             -3.6844    Z=             -0.0002  Tot=              3.6844
 Quadrupole moment (field-independent basis, Debye-Ang):
   XX=           -127.2447   YY=           -134.4452   ZZ=           -172.1327
   XY=             -0.0003   XZ=             -0.0005   YZ=              0.0003

 Normal termination of Gaussian 16 at Wed Jul 17 20:51:33 2024.
