 Gaussian 16, Revision C.01,
 Gaussian 16:  ES64L-G16RevC.01  3-Jul-2019

 ----------------------------------------------------------------------
 # pbe1pbe em=gd3bj genecp g09default scf=(xqc,maxcycle=64) force guess
 =read nosymm
 ----------------------------------------------------------------------

 ----------
 Title Card
 ----------
 Symbolic Z-matrix:
 Charge =  0 Multiplicity = 3

                          Input orientation:
 ---------------------------------------------------------------------
 Center     Atomic      Atomic             Coordinates (Angstroms)
 Number     Number       Type             X           Y           Z
 ---------------------------------------------------------------------
      1          6           0        0.000001    0.687603    0.000112
      2          6           0       -1.237112    1.352958    0.000042
      3          6           0       -1.237673    2.748416   -0.000004
      4          6           0        0.000003    3.405590    0.000014
      5          6           0        1.237674    2.748416    0.000047
      6          6           0        1.237119    1.352956    0.000084
      7          1           0       -2.154960    3.325326   -0.000046
      8          1           0        0.000001    4.496147   -0.000011
      9          1           0        2.154963    3.325328    0.000049
     10          6           0        3.658725    0.578932   -0.000020
     11          6           0        1.888421   -0.896661    0.000107
     12          6           0        4.161586   -0.741872   -0.000100
     13          6           0        4.524369    1.664974   -0.000052
     14          6           0        5.528892   -1.001748   -0.000204
     15          6           0        5.901993    1.400690   -0.000169
     16          1           0        4.160799    2.683770    0.000013
     17          6           0        6.391817    0.098401   -0.000241
     18          1           0        5.907725   -2.019091   -0.000250
     19          1           0        6.593561    2.235901   -0.000196
     20          1           0        7.464846   -0.071046   -0.000323
     21          6           0       -3.658725    0.578931   -0.000031
     22          6           0       -1.888409   -0.896663    0.000057
     23          6           0       -4.161578   -0.741876   -0.000065
     24          6           0       -4.524366    1.664964   -0.000050
     25          6           0       -5.528889   -1.001756   -0.000104
     26          6           0       -5.901993    1.400683   -0.000097
     27          1           0       -4.160798    2.683766   -0.000021
     28          6           0       -6.391810    0.098391   -0.000121
     29          1           0       -5.907717   -2.019099   -0.000110
     30          1           0       -6.593560    2.235891   -0.000109
     31          1           0       -7.464843   -0.071057   -0.000151
     32          7           0       -2.278804    0.457248    0.000013
     33          7           0       -3.081788   -1.593258   -0.000041
     34          7           0        2.278804    0.457252    0.000091
     35          7           0        3.081792   -1.593249   -0.000051
     36          6           0        3.176752   -3.021121    0.000005
     37          1           0        3.704595   -3.379826   -0.892567
     38          1           0        3.704173   -3.379828    0.892828
     39          1           0        2.168890   -3.443334   -0.000246
     40          6           0       -3.176742   -3.021121    0.000043
     41          1           0       -3.704102   -3.379820    0.892908
     42          1           0       -3.704645   -3.379844   -0.892488
     43          1           0       -2.168880   -3.443336   -0.000273
     44         27           0        0.000001   -1.172851    0.000067
 ---------------------------------------------------------------------

 SCF Done:  E(UPBE1PBE) =  -1212.13569035     A.U. after   32 cycles

 Alpha  occ. eigenvalues --  -14.45162 -14.45162 -14.44717 -14.44716 -10.27616
 Alpha  occ. eigenvalues --  -10.27615 -10.27288 -10.27287 -10.27263 -10.27262
 Alpha  occ. eigenvalues --  -10.27039 -10.27039 -10.26214 -10.26214 -10.23654
 Alpha  occ. eigenvalues --  -10.23654 -10.23514 -10.23513 -10.23005 -10.23005
 Alpha  occ. eigenvalues --  -10.22901 -10.22901 -10.22499 -10.22222 -10.22219
 Alpha  occ. eigenvalues --  -10.20036  -3.93713  -2.46455  -2.43688  -2.42822
 Alpha  occ. eigenvalues --   -1.06038  -1.05942  -0.96950  -0.96509  -0.87946
 Alpha  occ. eigenvalues --   -0.87545  -0.85504  -0.80239  -0.78900  -0.77615
 Alpha  occ. eigenvalues --   -0.77517  -0.75615  -0.74980  -0.72996  -0.72595
 Alpha  occ. eigenvalues --   -0.66765  -0.65307  -0.64375  -0.63863  -0.62842
 Alpha  occ. eigenvalues --   -0.61313  -0.58769  -0.57806  -0.56345  -0.53891
 Alpha  occ. eigenvalues --   -0.53061  -0.52025  -0.49789  -0.49700  -0.49241
 Alpha  occ. eigenvalues --   -0.48314  -0.47597  -0.47206  -0.46877  -0.45808
 Alpha  occ. eigenvalues --   -0.45707  -0.45184  -0.44863  -0.44751  -0.44134
 Alpha  occ. eigenvalues --   -0.42434  -0.42025  -0.41433  -0.38873  -0.38780
 Alpha  occ. eigenvalues --   -0.38621  -0.38170  -0.37312  -0.37263  -0.36807
 Alpha  occ. eigenvalues --   -0.36256  -0.34882  -0.34596  -0.33854  -0.32173
 Alpha  occ. eigenvalues --   -0.31803  -0.30274  -0.29827  -0.27218  -0.27019
 Alpha  occ. eigenvalues --   -0.26538  -0.26002  -0.24529  -0.23827  -0.22840
 Alpha  occ. eigenvalues --   -0.20728  -0.20551  -0.10132
 Alpha virt. eigenvalues --   -0.05817  -0.02421  -0.00117   0.00238   0.00319
 Alpha virt. eigenvalues --    0.02329   0.02931   0.03854   0.04458   0.05602
 Alpha virt. eigenvalues --    0.06393   0.07980   0.08022   0.09862   0.10300

  Beta  occ. eigenvalues --  -14.45024 -14.45024 -14.44688 -14.44687 -10.27389
  Beta  occ. eigenvalues --  -10.27388 -10.27297 -10.27296 -10.27266 -10.27266
  Beta  occ. eigenvalues --  -10.27075 -10.27075 -10.26061 -10.26061 -10.23596
  Beta  occ. eigenvalues --  -10.23596 -10.23489 -10.23489 -10.23010 -10.23009
  Beta  occ. eigenvalues --  -10.22869 -10.22869 -10.22361 -10.22328 -10.22294
  Beta  occ. eigenvalues --  -10.20349  -3.87117  -2.38758  -2.38114  -2.34835
  Beta  occ. eigenvalues --   -1.05820  -1.05724  -0.96734  -0.96280  -0.87888
  Beta  occ. eigenvalues --   -0.87469  -0.85465  -0.80138  -0.78843  -0.77552
  Beta  occ. eigenvalues --   -0.77442  -0.75455  -0.74771  -0.72994  -0.72631
  Beta  occ. eigenvalues --   -0.66788  -0.65041  -0.64129  -0.63858  -0.62768
  Beta  occ. eigenvalues --   -0.61212  -0.58728  -0.57751  -0.56306  -0.53837
  Beta  occ. eigenvalues --   -0.53024  -0.51951  -0.49309  -0.49239  -0.49233
  Beta  occ. eigenvalues --   -0.48286  -0.47561  -0.47181  -0.46789  -0.45767
  Beta  occ. eigenvalues --   -0.45693  -0.45133  -0.44733  -0.44447  -0.43805
  Beta  occ. eigenvalues --   -0.42438  -0.41994  -0.41427  -0.38785  -0.38613
  Beta  occ. eigenvalues --   -0.38439  -0.37448  -0.37245  -0.36750  -0.36372
  Beta  occ. eigenvalues --   -0.36193  -0.34886  -0.34029  -0.33188  -0.31456
  Beta  occ. eigenvalues --   -0.30194  -0.29666  -0.26323  -0.25997  -0.25154
  Beta  occ. eigenvalues --   -0.24652  -0.23822  -0.21994  -0.20771  -0.20510
  Beta  occ. eigenvalues --   -0.19881
  Beta virt. eigenvalues --   -0.04772  -0.04222  -0.01374  -0.00434   0.00064
  Beta virt. eigenvalues --    0.01237   0.01699   0.02482   0.03718   0.05643
  Beta virt. eigenvalues --    0.05971   0.06057   0.08039   0.09180   0.09268

 Mulliken charges and spin densities:
               1          2
     1  C   -0.299737  -0.184943
     2  C    0.351034   0.101385
     3  C   -0.191254  -0.076152
     4  C   -0.199873   0.124904
     5  C   -0.191253  -0.076152
     6  C    0.351034   0.101386
     7  H    0.171657   0.000642
     8  H    0.164708  -0.006488
     9  H    0.171657   0.000642
    10  C    0.311314  -0.001401
    11  C    0.367101   0.191267
    12  C    0.289804  -0.021572
    13  C   -0.193017   0.015339
    14  C   -0.213400   0.041679
    15  C   -0.189213   0.022548
    16  H    0.189784  -0.000995
    17  C   -0.184925  -0.006777
    18  H    0.173043  -0.002183
    19  H    0.169982  -0.001370
    20  H    0.168652   0.000026
    21  C    0.311326  -0.001401
    22  C    0.367095   0.191272
    23  C    0.289797  -0.021573
    24  C   -0.193022   0.015339
    25  C   -0.213396   0.041679
    26  C   -0.189212   0.022548
    27  H    0.189784  -0.000995
    28  C   -0.184926  -0.006777
    29  H    0.173042  -0.002183
    30  H    0.169983  -0.001370
    31  H    0.168651   0.000026
    32  N   -0.716000  -0.004451
    33  N   -0.600060   0.040767
    34  N   -0.715994  -0.004452
    35  N   -0.600063   0.040768
    36  C   -0.399404  -0.004633
    37  H    0.202242   0.002225
    38  H    0.202250   0.002230
    39  H    0.214368  -0.000505
    40  C   -0.399405  -0.004633
    41  H    0.202248   0.002230
    42  H    0.202240   0.002225
    43  H    0.214367  -0.000505
    44  Co   0.086990   1.470386
 Sum of Mulliken charges =  -0.00000   2.00000

 Dipole moment (field-independent basis, Debye):
    X=              0.0002    Y=             -3.4647    Z=             -0.0003  Tot=              3.4647
 Quadrupole moment (field-independent basis, Debye-Ang):
   XX=           -137.0000   YY=           -132.5454   ZZ=           -173.7944
   XY=             -0.0003   XZ=             -0.0004   YZ=              0.0006

 Normal termination of Gaussian 16 at Wed Jul 17 20:50:55 2024.
