 Gaussian 16, Revision C.01,
 Gaussian 16:  ES64L-G16RevC.01  3-Jul-2019

 ----------------------------------------------------------------------
 # pbe1pbe em=gd3bj genecp g09default scf=(xqc,maxcycle=64) force guess
 =read nosymm
 ----------------------------------------------------------------------

 ----------
 Title Card
 ----------
 Symbolic Z-matrix:
 Charge =  0 Multiplicity = 1

                          Input orientation:
 ---------------------------------------------------------------------
 Center     Atomic      Atomic             Coordinates (Angstroms)
 Number     Number       Type             X           Y           Z
 ---------------------------------------------------------------------
      1          6           0        0.000002    0.641662    0.000131
      2          6           0       -1.196857    1.358537    0.000045
      3          6           0       -1.223877    2.751585   -0.000003
      4          6           0        0.000004    3.427124    0.000015
      5          6           0        1.223878    2.751584    0.000048
      6          6           0        1.196866    1.358534    0.000091
      7          1           0       -2.147442    3.322001   -0.000048
      8          1           0        0.000001    4.517368   -0.000011
      9          1           0        2.147445    3.322001    0.000048
     10          6           0        3.646580    0.573821   -0.000020
     11          6           0        1.883504   -0.895189    0.000115
     12          6           0        4.161177   -0.739430   -0.000111
     13          6           0        4.519280    1.663475   -0.000050
     14          6           0        5.529698   -1.001203   -0.000209
     15          6           0        5.890734    1.401074   -0.000167
     16          1           0        4.159843    2.684405    0.000014
     17          6           0        6.389419    0.093138   -0.000240
     18          1           0        5.909125   -2.018999   -0.000252
     19          1           0        6.587831    2.233199   -0.000197
     20          1           0        7.463692   -0.071453   -0.000321
     21          6           0       -3.646583    0.573822   -0.000031
     22          6           0       -1.883492   -0.895192    0.000050
     23          6           0       -4.161166   -0.739433   -0.000068
     24          6           0       -4.519274    1.663462   -0.000048
     25          6           0       -5.529700   -1.001211   -0.000106
     26          6           0       -5.890737    1.401068   -0.000095
     27          1           0       -4.159843    2.684401   -0.000021
     28          6           0       -6.389409    0.093128   -0.000120
     29          1           0       -5.909118   -2.019006   -0.000112
     30          1           0       -6.587830    2.233188   -0.000110
     31          1           0       -7.463690   -0.071464   -0.000149
     32          7           0       -2.268908    0.434499    0.000018
     33          7           0       -3.066369   -1.585739   -0.000039
     34          7           0        2.268910    0.434505    0.000101
     35          7           0        3.066372   -1.585728   -0.000052
     36          6           0        3.170867   -3.021738   -0.000000
     37          1           0        3.704296   -3.373098   -0.891139
     38          1           0        3.703879   -3.373091    0.891397
     39          1           0        2.163077   -3.440035   -0.000239
     40          6           0       -3.170857   -3.021737    0.000038
     41          1           0       -3.703809   -3.373087    0.891476
     42          1           0       -3.704346   -3.373115   -0.891061
     43          1           0       -2.163068   -3.440036   -0.000266
     44         27           0       -0.000000   -1.163518    0.000037
 ---------------------------------------------------------------------

 SCF Done:  E(UPBE1PBE) =  -1212.15392506     A.U. after   17 cycles

 Alpha  occ. eigenvalues --  -14.45416 -14.45416 -14.44690 -14.44689 -10.27354
 Alpha  occ. eigenvalues --  -10.27353 -10.27308 -10.27307 -10.27204 -10.27204
 Alpha  occ. eigenvalues --  -10.27149 -10.27148 -10.24809 -10.24809 -10.24153
 Alpha  occ. eigenvalues --  -10.24153 -10.23942 -10.23942 -10.23429 -10.23429
 Alpha  occ. eigenvalues --  -10.23366 -10.23366 -10.21543 -10.21539 -10.21239
 Alpha  occ. eigenvalues --  -10.18331  -3.83411  -2.35491  -2.34914  -2.31355
 Alpha  occ. eigenvalues --   -1.06189  -1.06110  -0.96162  -0.95734  -0.88036
 Alpha  occ. eigenvalues --   -0.87783  -0.85149  -0.79663  -0.78579  -0.77783
 Alpha  occ. eigenvalues --   -0.77704  -0.75701  -0.75047  -0.72563  -0.72444
 Alpha  occ. eigenvalues --   -0.66350  -0.64944  -0.64423  -0.63472  -0.62793
 Alpha  occ. eigenvalues --   -0.61168  -0.58761  -0.57475  -0.56112  -0.53950
 Alpha  occ. eigenvalues --   -0.53106  -0.51694  -0.49547  -0.49481  -0.49107
 Alpha  occ. eigenvalues --   -0.47744  -0.47556  -0.46770  -0.46760  -0.45870
 Alpha  occ. eigenvalues --   -0.45813  -0.44896  -0.44686  -0.44319  -0.43796
 Alpha  occ. eigenvalues --   -0.41979  -0.41850  -0.41415  -0.38609  -0.38532
 Alpha  occ. eigenvalues --   -0.38324  -0.37503  -0.37367  -0.36550  -0.36332
 Alpha  occ. eigenvalues --   -0.35826  -0.34515  -0.34239  -0.33399  -0.31472
 Alpha  occ. eigenvalues --   -0.28809  -0.26757  -0.26404  -0.26251  -0.24824
 Alpha  occ. eigenvalues --   -0.24436  -0.21653  -0.21545  -0.20613  -0.16098
 Alpha  occ. eigenvalues --   -0.15682  -0.15123
 Alpha virt. eigenvalues --   -0.04036  -0.02166  -0.00379   0.00265   0.01065
 Alpha virt. eigenvalues --    0.01471   0.02054   0.03631   0.05428   0.05976
 Alpha virt. eigenvalues --    0.06813   0.07715   0.09252   0.09388   0.10165

  Beta  occ. eigenvalues --  -14.45416 -14.45416 -14.44690 -14.44689 -10.27354
  Beta  occ. eigenvalues --  -10.27353 -10.27308 -10.27307 -10.27204 -10.27204
  Beta  occ. eigenvalues --  -10.27149 -10.27148 -10.24809 -10.24809 -10.24153
  Beta  occ. eigenvalues --  -10.24153 -10.23942 -10.23942 -10.23429 -10.23429
  Beta  occ. eigenvalues --  -10.23366 -10.23366 -10.21543 -10.21539 -10.21239
  Beta  occ. eigenvalues --  -10.18331  -3.83411  -2.35491  -2.34914  -2.31355
  Beta  occ. eigenvalues --   -1.06189  -1.06110  -0.96162  -0.95734  -0.88036
  Beta  occ. eigenvalues --   -0.87783  -0.85149  -0.79663  -0.78579  -0.77783
  Beta  occ. eigenvalues --   -0.77704  -0.75701  -0.75047  -0.72563  -0.72444
  Beta  occ. eigenvalues --   -0.66350  -0.64944  -0.64423  -0.63472  -0.62793
  Beta  occ. eigenvalues --   -0.61168  -0.58761  -0.57475  -0.56112  -0.53950
  Beta  occ. eigenvalues --   -0.53106  -0.51694  -0.49547  -0.49481  -0.49107
  Beta  occ. eigenvalues --   -0.47744  -0.47556  -0.46770  -0.46760  -0.45870
  Beta  occ. eigenvalues --   -0.45813  -0.44896  -0.44686  -0.44319  -0.43796
  Beta  occ. eigenvalues --   -0.41979  -0.41850  -0.41415  -0.38609  -0.38532
  Beta  occ. eigenvalues --   -0.38324  -0.37503  -0.37367  -0.36550  -0.36332
  Beta  occ. eigenvalues --   -0.35826  -0.34515  -0.34239  -0.33399  -0.31472
  Beta  occ. eigenvalues --   -0.28809  -0.26758  -0.26404  -0.26251  -0.24824
  Beta  occ. eigenvalues --   -0.24436  -0.21653  -0.21545  -0.20613  -0.16098
  Beta  occ. eigenvalues --   -0.15682  -0.15123
  Beta virt. eigenvalues --   -0.04036  -0.02166  -0.00379   0.00265   0.01065
  Beta virt. eigenvalues --    0.01471   0.02054   0.03631   0.05428   0.05976
  Beta virt. eigenvalues --    0.06813   0.07715   0.09252   0.09388   0.10165

 Mulliken charges and spin densities:
               1          2
     1  C   -0.211042   0.000001
     2  C    0.279515  -0.000000
     3  C   -0.183956   0.000000
     4  C   -0.210725  -0.000000
     5  C   -0.183954   0.000000
     6  C    0.279514  -0.000000
     7  H    0.164949   0.000000
     8  H    0.159309   0.000000
     9  H    0.164949   0.000000
    10  C    0.309466  -0.000000
    11  C    0.410193   0.000001
    12  C    0.279618  -0.000000
    13  C   -0.185824   0.000000
    14  C   -0.202117   0.000000
    15  C   -0.186985   0.000000
    16  H    0.194146  -0.000000
    17  C   -0.187538   0.000000
    18  H    0.176504  -0.000000
    19  H    0.172871  -0.000000
    20  H    0.171575  -0.000000
    21  C    0.309483  -0.000000
    22  C    0.410189   0.000001
    23  C    0.279606  -0.000000
    24  C   -0.185832   0.000000
    25  C   -0.202110   0.000000
    26  C   -0.186983   0.000000
    27  H    0.194146  -0.000000
    28  C   -0.187539   0.000000
    29  H    0.176504  -0.000000
    30  H    0.172872  -0.000000
    31  H    0.171573  -0.000000
    32  N   -0.705234   0.000000
    33  N   -0.602983   0.000000
    34  N   -0.705227   0.000000
    35  N   -0.602987   0.000000
    36  C   -0.398368   0.000000
    37  H    0.201688   0.000000
    38  H    0.201698   0.000000
    39  H    0.222479   0.000000
    40  C   -0.398370   0.000000
    41  H    0.201696   0.000000
    42  H    0.201686   0.000000
    43  H    0.222479   0.000000
    44  Co  -0.000931  -0.000003
 Sum of Mulliken charges =  -0.00000   0.00000

 Dipole moment (field-independent basis, Debye):
    X=              0.0001    Y=             -3.4773    Z=             -0.0003  Tot=              3.4773
 Quadrupole moment (field-independent basis, Debye-Ang):
   XX=           -127.1957   YY=           -133.9744   ZZ=           -172.1240
   XY=             -0.0003   XZ=             -0.0004   YZ=              0.0005

 Normal termination of Gaussian 16 at Wed Jul 17 20:53:02 2024.
