 Gaussian 16, Revision C.01,
 Gaussian 16:  ES64L-G16RevC.01  3-Jul-2019

 ----------------------------------------------------------------------
 # pbe1pbe em=gd3bj genecp g09default scf=(xqc,maxcycle=64) force guess
 =read nosymm
 ----------------------------------------------------------------------

 ----------
 Title Card
 ----------
 Symbolic Z-matrix:
 Charge =  0 Multiplicity = 3

                          Input orientation:
 ---------------------------------------------------------------------
 Center     Atomic      Atomic             Coordinates (Angstroms)
 Number     Number       Type             X           Y           Z
 ---------------------------------------------------------------------
      1          6           0        0.000002    0.641662    0.000131
      2          6           0       -1.196857    1.358537    0.000045
      3          6           0       -1.223877    2.751585   -0.000003
      4          6           0        0.000004    3.427124    0.000015
      5          6           0        1.223878    2.751584    0.000048
      6          6           0        1.196866    1.358534    0.000091
      7          1           0       -2.147442    3.322001   -0.000048
      8          1           0        0.000001    4.517368   -0.000011
      9          1           0        2.147445    3.322001    0.000048
     10          6           0        3.646580    0.573821   -0.000020
     11          6           0        1.883504   -0.895189    0.000115
     12          6           0        4.161177   -0.739430   -0.000111
     13          6           0        4.519280    1.663475   -0.000050
     14          6           0        5.529698   -1.001203   -0.000209
     15          6           0        5.890734    1.401074   -0.000167
     16          1           0        4.159843    2.684405    0.000014
     17          6           0        6.389419    0.093138   -0.000240
     18          1           0        5.909125   -2.018999   -0.000252
     19          1           0        6.587831    2.233199   -0.000197
     20          1           0        7.463692   -0.071453   -0.000321
     21          6           0       -3.646583    0.573822   -0.000031
     22          6           0       -1.883492   -0.895192    0.000050
     23          6           0       -4.161166   -0.739433   -0.000068
     24          6           0       -4.519274    1.663462   -0.000048
     25          6           0       -5.529700   -1.001211   -0.000106
     26          6           0       -5.890737    1.401068   -0.000095
     27          1           0       -4.159843    2.684401   -0.000021
     28          6           0       -6.389409    0.093128   -0.000120
     29          1           0       -5.909118   -2.019006   -0.000112
     30          1           0       -6.587830    2.233188   -0.000110
     31          1           0       -7.463690   -0.071464   -0.000149
     32          7           0       -2.268908    0.434499    0.000018
     33          7           0       -3.066369   -1.585739   -0.000039
     34          7           0        2.268910    0.434505    0.000101
     35          7           0        3.066372   -1.585728   -0.000052
     36          6           0        3.170867   -3.021738   -0.000000
     37          1           0        3.704296   -3.373098   -0.891139
     38          1           0        3.703879   -3.373091    0.891397
     39          1           0        2.163077   -3.440035   -0.000239
     40          6           0       -3.170857   -3.021737    0.000038
     41          1           0       -3.703809   -3.373087    0.891476
     42          1           0       -3.704346   -3.373115   -0.891061
     43          1           0       -2.163068   -3.440036   -0.000266
     44         27           0       -0.000000   -1.163518    0.000037
 ---------------------------------------------------------------------

 SCF Done:  E(UPBE1PBE) =  -1212.13546649     A.U. after   32 cycles

 Alpha  occ. eigenvalues --  -14.45015 -14.45015 -14.44581 -14.44580 -10.27251
 Alpha  occ. eigenvalues --  -10.27250 -10.27213 -10.27213 -10.27170 -10.27169
 Alpha  occ. eigenvalues --  -10.26949 -10.26948 -10.26274 -10.26274 -10.23654
 Alpha  occ. eigenvalues --  -10.23653 -10.23535 -10.23535 -10.23011 -10.23011
 Alpha  occ. eigenvalues --  -10.22918 -10.22917 -10.22639 -10.22366 -10.22362
 Alpha  occ. eigenvalues --  -10.19704  -3.93771  -2.46739  -2.43666  -2.42735
 Alpha  occ. eigenvalues --   -1.06132  -1.06035  -0.96324  -0.95807  -0.87931
 Alpha  occ. eigenvalues --   -0.87489  -0.85853  -0.79868  -0.78880  -0.77560
 Alpha  occ. eigenvalues --   -0.77431  -0.75722  -0.75033  -0.72974  -0.72921
 Alpha  occ. eigenvalues --   -0.66575  -0.65102  -0.64290  -0.63577  -0.62941
 Alpha  occ. eigenvalues --   -0.61186  -0.58761  -0.58026  -0.56089  -0.53822
 Alpha  occ. eigenvalues --   -0.53045  -0.51968  -0.49674  -0.49582  -0.49508
 Alpha  occ. eigenvalues --   -0.47994  -0.47335  -0.46938  -0.46812  -0.45733
 Alpha  occ. eigenvalues --   -0.45691  -0.44963  -0.44681  -0.44673  -0.43943
 Alpha  occ. eigenvalues --   -0.42184  -0.42054  -0.41717  -0.39323  -0.38919
 Alpha  occ. eigenvalues --   -0.38625  -0.38182  -0.37595  -0.37265  -0.36634
 Alpha  occ. eigenvalues --   -0.36042  -0.34753  -0.34670  -0.33611  -0.32379
 Alpha  occ. eigenvalues --   -0.31824  -0.31223  -0.30186  -0.27372  -0.27013
 Alpha  occ. eigenvalues --   -0.26493  -0.26059  -0.24531  -0.23761  -0.22911
 Alpha  occ. eigenvalues --   -0.20966  -0.20954  -0.09722
 Alpha virt. eigenvalues --   -0.05650  -0.02005  -0.00031   0.00299   0.00337
 Alpha virt. eigenvalues --    0.02301   0.03022   0.03746   0.04603   0.05654
 Alpha virt. eigenvalues --    0.06593   0.07925   0.07974   0.09827   0.10275

  Beta  occ. eigenvalues --  -14.44880 -14.44880 -14.44549 -14.44548 -10.27222
  Beta  occ. eigenvalues --  -10.27221 -10.27177 -10.27177 -10.27054 -10.27053
  Beta  occ. eigenvalues --  -10.26983 -10.26983 -10.26105 -10.26105 -10.23598
  Beta  occ. eigenvalues --  -10.23598 -10.23505 -10.23505 -10.23010 -10.23010
  Beta  occ. eigenvalues --  -10.22889 -10.22889 -10.22497 -10.22476 -10.22419
  Beta  occ. eigenvalues --  -10.19972  -3.87395  -2.39229  -2.38395  -2.34966
  Beta  occ. eigenvalues --   -1.05925  -1.05828  -0.96107  -0.95581  -0.87864
  Beta  occ. eigenvalues --   -0.87412  -0.85778  -0.79757  -0.78809  -0.77493
  Beta  occ. eigenvalues --   -0.77352  -0.75573  -0.74839  -0.72972  -0.72915
  Beta  occ. eigenvalues --   -0.66586  -0.64807  -0.64070  -0.63579  -0.62854
  Beta  occ. eigenvalues --   -0.61088  -0.58711  -0.57931  -0.56045  -0.53760
  Beta  occ. eigenvalues --   -0.53002  -0.51883  -0.49528  -0.49206  -0.49135
  Beta  occ. eigenvalues --   -0.47886  -0.47299  -0.46870  -0.46780  -0.45690
  Beta  occ. eigenvalues --   -0.45670  -0.44905  -0.44660  -0.44252  -0.43633
  Beta  occ. eigenvalues --   -0.42189  -0.42021  -0.41707  -0.39330  -0.38597
  Beta  occ. eigenvalues --   -0.38404  -0.37689  -0.37252  -0.36835  -0.36184
  Beta  occ. eigenvalues --   -0.36022  -0.34643  -0.34201  -0.32966  -0.31396
  Beta  occ. eigenvalues --   -0.31388  -0.29608  -0.26251  -0.26162  -0.25228
  Beta  occ. eigenvalues --   -0.24890  -0.23880  -0.22151  -0.21201  -0.20712
  Beta  occ. eigenvalues --   -0.20031
  Beta virt. eigenvalues --   -0.04685  -0.04171  -0.01585  -0.00264   0.00183
  Beta virt. eigenvalues --    0.01257   0.01797   0.02448   0.03755   0.05709
  Beta virt. eigenvalues --    0.06022   0.06124   0.08203   0.09089   0.09240

 Mulliken charges and spin densities:
               1          2
     1  C   -0.306242  -0.156950
     2  C    0.325365   0.111776
     3  C   -0.185085  -0.080316
     4  C   -0.204952   0.142147
     5  C   -0.185083  -0.080315
     6  C    0.325365   0.111778
     7  H    0.174384   0.001452
     8  H    0.167893  -0.007511
     9  H    0.174383   0.001452
    10  C    0.310348  -0.004371
    11  C    0.377438   0.171784
    12  C    0.282805  -0.020536
    13  C   -0.191096   0.019915
    14  C   -0.208295   0.040050
    15  C   -0.188734   0.019682
    16  H    0.188267  -0.001221
    17  C   -0.187240  -0.002982
    18  H    0.173046  -0.002133
    19  H    0.169641  -0.001247
    20  H    0.169018  -0.000165
    21  C    0.310366  -0.004371
    22  C    0.377431   0.171790
    23  C    0.282792  -0.020537
    24  C   -0.191104   0.019915
    25  C   -0.208288   0.040051
    26  C   -0.188733   0.019684
    27  H    0.188266  -0.001221
    28  C   -0.187241  -0.002983
    29  H    0.173046  -0.002133
    30  H    0.169641  -0.001247
    31  H    0.169016  -0.000165
    32  N   -0.711569  -0.002352
    33  N   -0.608179   0.040952
    34  N   -0.711561  -0.002355
    35  N   -0.608185   0.040955
    36  C   -0.396866  -0.004474
    37  H    0.202391   0.002091
    38  H    0.202398   0.002096
    39  H    0.213374  -0.000466
    40  C   -0.396868  -0.004474
    41  H    0.202397   0.002096
    42  H    0.202389   0.002091
    43  H    0.213373  -0.000466
    44  Co   0.120487   1.443235
 Sum of Mulliken charges =  -0.00000   2.00000

 Dipole moment (field-independent basis, Debye):
    X=              0.0002    Y=             -3.2660    Z=             -0.0005  Tot=              3.2660
 Quadrupole moment (field-independent basis, Debye-Ang):
   XX=           -137.0081   YY=           -132.0512   ZZ=           -173.9082
   XY=             -0.0003   XZ=             -0.0004   YZ=              0.0010

 Normal termination of Gaussian 16 at Wed Jul 17 20:52:29 2024.
