 Gaussian 16, Revision C.01,
 Gaussian 16:  ES64L-G16RevC.01  3-Jul-2019

 ----------------------------------------------------------------------
 # pbe1pbe em=gd3bj genecp g09default scf=(xqc,maxcycle=64) force guess
 =read nosymm
 ----------------------------------------------------------------------

 ----------
 Title Card
 ----------
 Symbolic Z-matrix:
 Charge =  0 Multiplicity = 1

                          Input orientation:
 ---------------------------------------------------------------------
 Center     Atomic      Atomic             Coordinates (Angstroms)
 Number     Number       Type             X           Y           Z
 ---------------------------------------------------------------------
      1          6           0        0.000002    0.587665    0.000121
      2          6           0       -1.160673    1.361096    0.000058
      3          6           0       -1.210600    2.754549   -0.000001
      4          6           0        0.000004    3.448484    0.000015
      5          6           0        1.210603    2.754549    0.000050
      6          6           0        1.160682    1.361093    0.000107
      7          1           0       -2.140205    3.318298   -0.000050
      8          1           0        0.000001    4.538566   -0.000010
      9          1           0        2.140209    3.318299    0.000047
     10          6           0        3.634593    0.568794   -0.000019
     11          6           0        1.877972   -0.894709    0.000124
     12          6           0        4.158788   -0.736758   -0.000121
     13          6           0        4.512904    1.661512   -0.000049
     14          6           0        5.528404   -1.001081   -0.000215
     15          6           0        5.878684    1.400335   -0.000166
     16          1           0        4.158328    2.685000    0.000016
     17          6           0        6.386554    0.088763   -0.000238
     18          1           0        5.910308   -2.018904   -0.000254
     19          1           0        6.581081    2.230381   -0.000198
     20          1           0        7.461874   -0.071739   -0.000319
     21          6           0       -3.634596    0.568793   -0.000030
     22          6           0       -1.877961   -0.894712    0.000043
     23          6           0       -4.158778   -0.736761   -0.000072
     24          6           0       -4.512897    1.661500   -0.000046
     25          6           0       -5.528406   -1.001090   -0.000109
     26          6           0       -5.878687    1.400329   -0.000094
     27          1           0       -4.158327    2.684996   -0.000020
     28          6           0       -6.386545    0.088754   -0.000118
     29          1           0       -5.910301   -2.018911   -0.000114
     30          1           0       -6.581080    2.230370   -0.000111
     31          1           0       -7.461871   -0.071750   -0.000148
     32          7           0       -2.257319    0.417466    0.000022
     33          7           0       -3.051085   -1.580326   -0.000040
     34          7           0        2.257321    0.417473    0.000110
     35          7           0        3.051089   -1.580315   -0.000057
     36          6           0        3.164502   -3.021006   -0.000004
     37          1           0        3.703531   -3.365786   -0.889733
     38          1           0        3.703121   -3.365770    0.889986
     39          1           0        2.156787   -3.437013   -0.000230
     40          6           0       -3.164492   -3.021006    0.000034
     41          1           0       -3.703051   -3.365768    0.890064
     42          1           0       -3.703581   -3.365801   -0.889655
     43          1           0       -2.156779   -3.437014   -0.000257
     44         27           0       -0.000001   -1.146767    0.000023
 ---------------------------------------------------------------------

 SCF Done:  E(UPBE1PBE) =  -1212.14669827     A.U. after   17 cycles

 Alpha  occ. eigenvalues --  -14.45276 -14.45276 -14.44445 -14.44444 -10.27245
 Alpha  occ. eigenvalues --  -10.27245 -10.27117 -10.27117 -10.27088 -10.27088
 Alpha  occ. eigenvalues --  -10.26927 -10.26926 -10.24771 -10.24770 -10.24182
 Alpha  occ. eigenvalues --  -10.24182 -10.23960 -10.23960 -10.23448 -10.23448
 Alpha  occ. eigenvalues --  -10.23379 -10.23379 -10.21598 -10.21595 -10.21210
 Alpha  occ. eigenvalues --  -10.18182  -3.83502  -2.35794  -2.34892  -2.31443
 Alpha  occ. eigenvalues --   -1.06266  -1.06185  -0.95679  -0.95204  -0.88014
 Alpha  occ. eigenvalues --   -0.87765  -0.85281  -0.79309  -0.78558  -0.77750
 Alpha  occ. eigenvalues --   -0.77649  -0.75722  -0.75075  -0.72682  -0.72370
 Alpha  occ. eigenvalues --   -0.66177  -0.64855  -0.64327  -0.63155  -0.62798
 Alpha  occ. eigenvalues --   -0.61021  -0.58689  -0.57587  -0.55869  -0.53889
 Alpha  occ. eigenvalues --   -0.53062  -0.51574  -0.49464  -0.49398  -0.49251
 Alpha  occ. eigenvalues --   -0.47589  -0.47589  -0.46623  -0.46498  -0.45868
 Alpha  occ. eigenvalues --   -0.45721  -0.44880  -0.44268  -0.44154  -0.43645
 Alpha  occ. eigenvalues --   -0.41973  -0.41747  -0.41097  -0.38864  -0.38587
 Alpha  occ. eigenvalues --   -0.38253  -0.37863  -0.37192  -0.36454  -0.36180
 Alpha  occ. eigenvalues --   -0.35870  -0.34602  -0.33802  -0.33134  -0.31376
 Alpha  occ. eigenvalues --   -0.28679  -0.28365  -0.26455  -0.26296  -0.24875
 Alpha  occ. eigenvalues --   -0.24482  -0.22081  -0.21592  -0.20701  -0.16020
 Alpha  occ. eigenvalues --   -0.15811  -0.15210
 Alpha virt. eigenvalues --   -0.03767  -0.02078  -0.00308   0.00428   0.01143
 Alpha virt. eigenvalues --    0.01525   0.02038   0.03737   0.05483   0.06009
 Alpha virt. eigenvalues --    0.06924   0.07889   0.09120   0.09567   0.10134

  Beta  occ. eigenvalues --  -14.45276 -14.45276 -14.44445 -14.44444 -10.27245
  Beta  occ. eigenvalues --  -10.27245 -10.27117 -10.27117 -10.27088 -10.27088
  Beta  occ. eigenvalues --  -10.26927 -10.26926 -10.24771 -10.24770 -10.24182
  Beta  occ. eigenvalues --  -10.24182 -10.23960 -10.23960 -10.23448 -10.23448
  Beta  occ. eigenvalues --  -10.23379 -10.23379 -10.21598 -10.21595 -10.21210
  Beta  occ. eigenvalues --  -10.18182  -3.83502  -2.35794  -2.34892  -2.31443
  Beta  occ. eigenvalues --   -1.06266  -1.06185  -0.95679  -0.95204  -0.88014
  Beta  occ. eigenvalues --   -0.87765  -0.85281  -0.79309  -0.78558  -0.77750
  Beta  occ. eigenvalues --   -0.77649  -0.75722  -0.75075  -0.72682  -0.72370
  Beta  occ. eigenvalues --   -0.66177  -0.64855  -0.64327  -0.63155  -0.62798
  Beta  occ. eigenvalues --   -0.61021  -0.58689  -0.57587  -0.55869  -0.53889
  Beta  occ. eigenvalues --   -0.53062  -0.51574  -0.49464  -0.49398  -0.49251
  Beta  occ. eigenvalues --   -0.47589  -0.47589  -0.46623  -0.46498  -0.45868
  Beta  occ. eigenvalues --   -0.45721  -0.44880  -0.44268  -0.44154  -0.43645
  Beta  occ. eigenvalues --   -0.41973  -0.41747  -0.41097  -0.38864  -0.38587
  Beta  occ. eigenvalues --   -0.38253  -0.37863  -0.37192  -0.36454  -0.36180
  Beta  occ. eigenvalues --   -0.35870  -0.34602  -0.33802  -0.33134  -0.31376
  Beta  occ. eigenvalues --   -0.28679  -0.28366  -0.26455  -0.26296  -0.24875
  Beta  occ. eigenvalues --   -0.24482  -0.22081  -0.21592  -0.20701  -0.16020
  Beta  occ. eigenvalues --   -0.15811  -0.15210
  Beta virt. eigenvalues --   -0.03767  -0.02078  -0.00308   0.00428   0.01143
  Beta virt. eigenvalues --    0.01525   0.02038   0.03737   0.05483   0.06009
  Beta virt. eigenvalues --    0.06924   0.07889   0.09120   0.09567   0.10134

 Mulliken charges and spin densities:
               1          2
     1  C   -0.221129   0.000001
     2  C    0.257637  -0.000001
     3  C   -0.183672   0.000001
     4  C   -0.210874  -0.000001
     5  C   -0.183670   0.000001
     6  C    0.257637  -0.000001
     7  H    0.166877  -0.000000
     8  H    0.161270   0.000000
     9  H    0.166877  -0.000000
    10  C    0.307115  -0.000000
    11  C    0.414072   0.000001
    12  C    0.273763  -0.000000
    13  C   -0.183694   0.000000
    14  C   -0.198638   0.000000
    15  C   -0.186829  -0.000000
    16  H    0.193308  -0.000000
    17  C   -0.188820   0.000000
    18  H    0.176567  -0.000000
    19  H    0.172428  -0.000000
    20  H    0.172097  -0.000000
    21  C    0.307129  -0.000000
    22  C    0.414067   0.000001
    23  C    0.273752  -0.000000
    24  C   -0.183702   0.000000
    25  C   -0.198631   0.000000
    26  C   -0.186828  -0.000000
    27  H    0.193308  -0.000000
    28  C   -0.188821   0.000000
    29  H    0.176567  -0.000000
    30  H    0.172429  -0.000000
    31  H    0.172095  -0.000000
    32  N   -0.697329   0.000000
    33  N   -0.608904   0.000000
    34  N   -0.697323   0.000000
    35  N   -0.608907   0.000000
    36  C   -0.396730   0.000000
    37  H    0.201559   0.000000
    38  H    0.201568   0.000000
    39  H    0.221188   0.000000
    40  C   -0.396731   0.000000
    41  H    0.201567   0.000000
    42  H    0.201557   0.000000
    43  H    0.221187   0.000000
    44  Co   0.043612  -0.000004
 Sum of Mulliken charges =  -0.00000  -0.00000

 Dipole moment (field-independent basis, Debye):
    X=              0.0001    Y=             -3.4253    Z=             -0.0003  Tot=              3.4253
 Quadrupole moment (field-independent basis, Debye-Ang):
   XX=           -126.9934   YY=           -133.7458   ZZ=           -172.1006
   XY=             -0.0003   XZ=             -0.0004   YZ=              0.0005

 Normal termination of Gaussian 16 at Wed Jul 17 20:54:29 2024.
