 Gaussian 16, Revision C.01,
 Gaussian 16:  ES64L-G16RevC.01  3-Jul-2019

 ----------------------------------------------------------------------
 # pbe1pbe em=gd3bj genecp g09default scf=(xqc,maxcycle=64) force guess
 =read nosymm
 ----------------------------------------------------------------------

 ----------
 Title Card
 ----------
 Symbolic Z-matrix:
 Charge =  0 Multiplicity = 3

                          Input orientation:
 ---------------------------------------------------------------------
 Center     Atomic      Atomic             Coordinates (Angstroms)
 Number     Number       Type             X           Y           Z
 ---------------------------------------------------------------------
      1          6           0        0.000002    0.587665    0.000121
      2          6           0       -1.160673    1.361096    0.000058
      3          6           0       -1.210600    2.754549   -0.000001
      4          6           0        0.000004    3.448484    0.000015
      5          6           0        1.210603    2.754549    0.000050
      6          6           0        1.160682    1.361093    0.000107
      7          1           0       -2.140205    3.318298   -0.000050
      8          1           0        0.000001    4.538566   -0.000010
      9          1           0        2.140209    3.318299    0.000047
     10          6           0        3.634593    0.568794   -0.000019
     11          6           0        1.877972   -0.894709    0.000124
     12          6           0        4.158788   -0.736758   -0.000121
     13          6           0        4.512904    1.661512   -0.000049
     14          6           0        5.528404   -1.001081   -0.000215
     15          6           0        5.878684    1.400335   -0.000166
     16          1           0        4.158328    2.685000    0.000016
     17          6           0        6.386554    0.088763   -0.000238
     18          1           0        5.910308   -2.018904   -0.000254
     19          1           0        6.581081    2.230381   -0.000198
     20          1           0        7.461874   -0.071739   -0.000319
     21          6           0       -3.634596    0.568793   -0.000030
     22          6           0       -1.877961   -0.894712    0.000043
     23          6           0       -4.158778   -0.736761   -0.000072
     24          6           0       -4.512897    1.661500   -0.000046
     25          6           0       -5.528406   -1.001090   -0.000109
     26          6           0       -5.878687    1.400329   -0.000094
     27          1           0       -4.158327    2.684996   -0.000020
     28          6           0       -6.386545    0.088754   -0.000118
     29          1           0       -5.910301   -2.018911   -0.000114
     30          1           0       -6.581080    2.230370   -0.000111
     31          1           0       -7.461871   -0.071750   -0.000148
     32          7           0       -2.257319    0.417466    0.000022
     33          7           0       -3.051085   -1.580326   -0.000040
     34          7           0        2.257321    0.417473    0.000110
     35          7           0        3.051089   -1.580315   -0.000057
     36          6           0        3.164502   -3.021006   -0.000004
     37          1           0        3.703531   -3.365786   -0.889733
     38          1           0        3.703121   -3.365770    0.889986
     39          1           0        2.156787   -3.437013   -0.000230
     40          6           0       -3.164492   -3.021006    0.000034
     41          1           0       -3.703051   -3.365768    0.890064
     42          1           0       -3.703581   -3.365801   -0.889655
     43          1           0       -2.156779   -3.437014   -0.000257
     44         27           0       -0.000001   -1.146767    0.000023
 ---------------------------------------------------------------------

 SCF Done:  E(UPBE1PBE) =  -1212.12175807     A.U. after   25 cycles

 Alpha  occ. eigenvalues --  -14.44906 -14.44905 -14.44394 -14.44393 -10.27148
 Alpha  occ. eigenvalues --  -10.27148 -10.27091 -10.27090 -10.26953 -10.26952
 Alpha  occ. eigenvalues --  -10.26890 -10.26890 -10.26395 -10.26395 -10.23692
 Alpha  occ. eigenvalues --  -10.23692 -10.23562 -10.23562 -10.23036 -10.23036
 Alpha  occ. eigenvalues --  -10.22945 -10.22945 -10.22753 -10.22461 -10.22457
 Alpha  occ. eigenvalues --  -10.19456  -3.93737  -2.47072  -2.43521  -2.42482
 Alpha  occ. eigenvalues --   -1.06245  -1.06144  -0.95893  -0.95308  -0.87943
 Alpha  occ. eigenvalues --   -0.87482  -0.86066  -0.79551  -0.78975  -0.77513
 Alpha  occ. eigenvalues --   -0.77383  -0.75784  -0.75124  -0.73202  -0.72794
 Alpha  occ. eigenvalues --   -0.66424  -0.65021  -0.64205  -0.63258  -0.63033
 Alpha  occ. eigenvalues --   -0.61084  -0.58715  -0.58208  -0.55892  -0.53789
 Alpha  occ. eigenvalues --   -0.53030  -0.51878  -0.49773  -0.49607  -0.49510
 Alpha  occ. eigenvalues --   -0.47748  -0.47390  -0.46908  -0.46418  -0.45737
 Alpha  occ. eigenvalues --   -0.45685  -0.44695  -0.44639  -0.44542  -0.43801
 Alpha  occ. eigenvalues --   -0.42054  -0.41874  -0.41715  -0.39890  -0.38992
 Alpha  occ. eigenvalues --   -0.38631  -0.38180  -0.37810  -0.37153  -0.36549
 Alpha  occ. eigenvalues --   -0.35863  -0.34896  -0.34376  -0.33376  -0.32800
 Alpha  occ. eigenvalues --   -0.32627  -0.31742  -0.29964  -0.27456  -0.26977
 Alpha  occ. eigenvalues --   -0.26428  -0.26089  -0.24560  -0.23562  -0.22939
 Alpha  occ. eigenvalues --   -0.21166  -0.21032  -0.09473
 Alpha virt. eigenvalues --   -0.05366  -0.01668   0.00045   0.00300   0.00389
 Alpha virt. eigenvalues --    0.02268   0.03091   0.03698   0.04821   0.05707
 Alpha virt. eigenvalues --    0.06779   0.07958   0.07991   0.09799   0.10229

  Beta  occ. eigenvalues --  -14.44772 -14.44772 -14.44363 -14.44361 -10.27157
  Beta  occ. eigenvalues --  -10.27156 -10.27101 -10.27101 -10.26922 -10.26922
  Beta  occ. eigenvalues --  -10.26778 -10.26778 -10.26195 -10.26195 -10.23640
  Beta  occ. eigenvalues --  -10.23640 -10.23529 -10.23529 -10.23032 -10.23032
  Beta  occ. eigenvalues --  -10.22921 -10.22921 -10.22599 -10.22584 -10.22498
  Beta  occ. eigenvalues --  -10.19687  -3.87583  -2.39620  -2.38593  -2.35030
  Beta  occ. eigenvalues --   -1.06044  -1.05945  -0.95670  -0.95084  -0.87862
  Beta  occ. eigenvalues --   -0.87407  -0.85953  -0.79427  -0.78881  -0.77446
  Beta  occ. eigenvalues --   -0.77302  -0.75639  -0.74937  -0.73165  -0.72789
  Beta  occ. eigenvalues --   -0.66424  -0.64725  -0.64008  -0.63241  -0.62926
  Beta  occ. eigenvalues --   -0.60988  -0.58652  -0.58072  -0.55840  -0.53721
  Beta  occ. eigenvalues --   -0.52983  -0.51777  -0.49788  -0.49145  -0.49073
  Beta  occ. eigenvalues --   -0.47591  -0.47355  -0.46863  -0.46383  -0.45691
  Beta  occ. eigenvalues --   -0.45661  -0.44672  -0.44571  -0.44100  -0.43504
  Beta  occ. eigenvalues --   -0.42015  -0.41864  -0.41703  -0.39883  -0.38589
  Beta  occ. eigenvalues --   -0.38357  -0.37865  -0.37136  -0.37000  -0.36093
  Beta  occ. eigenvalues --   -0.35839  -0.34341  -0.34305  -0.32741  -0.32653
  Beta  occ. eigenvalues --   -0.31272  -0.29465  -0.26347  -0.26172  -0.25264
  Beta  occ. eigenvalues --   -0.25043  -0.23960  -0.22213  -0.21517  -0.20782
  Beta  occ. eigenvalues --   -0.20052
  Beta virt. eigenvalues --   -0.04845  -0.04007  -0.01798  -0.00145   0.00315
  Beta virt. eigenvalues --    0.01290   0.01876   0.02417   0.03802   0.05841
  Beta virt. eigenvalues --    0.06068   0.06290   0.08341   0.08890   0.09399

 Mulliken charges and spin densities:
               1          2
     1  C   -0.327951  -0.134961
     2  C    0.304420   0.132119
     3  C   -0.185489  -0.090831
     4  C   -0.203488   0.170232
     5  C   -0.185488  -0.090831
     6  C    0.304421   0.132121
     7  H    0.176366   0.002384
     8  H    0.170659  -0.009126
     9  H    0.176365   0.002384
    10  C    0.308225  -0.005941
    11  C    0.383774   0.156332
    12  C    0.277197  -0.019099
    13  C   -0.189235   0.022247
    14  C   -0.204709   0.037443
    15  C   -0.188359   0.016835
    16  H    0.187346  -0.001326
    17  C   -0.188740   0.000215
    18  H    0.173251  -0.002022
    19  H    0.169277  -0.001112
    20  H    0.169574  -0.000317
    21  C    0.308240  -0.005941
    22  C    0.383767   0.156334
    23  C    0.277185  -0.019100
    24  C   -0.189243   0.022247
    25  C   -0.204702   0.037444
    26  C   -0.188358   0.016837
    27  H    0.187346  -0.001326
    28  C   -0.188741   0.000214
    29  H    0.173251  -0.002022
    30  H    0.169277  -0.001112
    31  H    0.169572  -0.000317
    32  N   -0.703377  -0.002186
    33  N   -0.614591   0.041274
    34  N   -0.703371  -0.002189
    35  N   -0.614595   0.041277
    36  C   -0.395225  -0.004364
    37  H    0.202377   0.002032
    38  H    0.202384   0.002036
    39  H    0.212623  -0.000421
    40  C   -0.395226  -0.004364
    41  H    0.202383   0.002036
    42  H    0.202375   0.002032
    43  H    0.212623  -0.000421
    44  Co   0.166610   1.403255
 Sum of Mulliken charges =  -0.00000   2.00000

 Dipole moment (field-independent basis, Debye):
    X=              0.0001    Y=             -3.1108    Z=             -0.0003  Tot=              3.1108
 Quadrupole moment (field-independent basis, Debye-Ang):
   XX=           -136.5749   YY=           -131.6960   ZZ=           -173.9902
   XY=             -0.0002   XZ=             -0.0004   YZ=              0.0008

 Normal termination of Gaussian 16 at Wed Jul 17 20:53:54 2024.
