 Gaussian 16, Revision C.01,
 Gaussian 16:  ES64L-G16RevC.01  3-Jul-2019

 ----------------------------------------------------------------------
 # pbe1pbe em=gd3bj genecp g09default scf=(xqc,maxcycle=64) force guess
 =read nosymm
 ----------------------------------------------------------------------

 ----------
 Title Card
 ----------
 Symbolic Z-matrix:
 Charge =  0 Multiplicity = 1

                          Input orientation:
 ---------------------------------------------------------------------
 Center     Atomic      Atomic             Coordinates (Angstroms)
 Number     Number       Type             X           Y           Z
 ---------------------------------------------------------------------
      1          6           0        0.000003    0.640092    0.000126
      2          6           0       -1.197450    1.359416    0.000049
      3          6           0       -1.225544    2.750112   -0.000004
      4          6           0        0.000002    3.429353    0.000015
      5          6           0        1.225548    2.750112    0.000047
      6          6           0        1.197455    1.359415    0.000095
      7          1           0       -2.147109    3.322401   -0.000048
      8          1           0        0.000001    4.516884   -0.000011
      9          1           0        2.147111    3.322401    0.000048
     10          6           0        3.648929    0.573564   -0.000021
     11          6           0        1.883641   -0.897266    0.000116
     12          6           0        4.162787   -0.736609   -0.000112
     13          6           0        4.519226    1.662230   -0.000050
     14          6           0        5.528432   -1.001741   -0.000209
     15          6           0        5.889658    1.400230   -0.000167
     16          1           0        4.160090    2.685031    0.000014
     17          6           0        6.390804    0.094180   -0.000239
     18          1           0        5.909550   -2.019074   -0.000251
     19          1           0        6.588781    2.233675   -0.000197
     20          1           0        7.463900   -0.071491   -0.000321
     21          6           0       -3.648925    0.573556   -0.000032
     22          6           0       -1.883635   -0.897269    0.000051
     23          6           0       -4.162783   -0.736614   -0.000069
     24          6           0       -4.519226    1.662226   -0.000048
     25          6           0       -5.528426   -1.001750   -0.000106
     26          6           0       -5.889656    1.400222   -0.000095
     27          1           0       -4.160090    2.685025   -0.000021
     28          6           0       -6.390800    0.094172   -0.000120
     29          1           0       -5.909544   -2.019082   -0.000112
     30          1           0       -6.588780    2.233666   -0.000110
     31          1           0       -7.463895   -0.071502   -0.000149
     32          7           0       -2.267176    0.435532    0.000019
     33          7           0       -3.063311   -1.586129   -0.000039
     34          7           0        2.267179    0.435536    0.000101
     35          7           0        3.063319   -1.586125   -0.000052
     36          6           0        3.171166   -3.021550   -0.000001
     37          1           0        3.704493   -3.373160   -0.891042
     38          1           0        3.704076   -3.373153    0.891300
     39          1           0        2.163122   -3.439921   -0.000239
     40          6           0       -3.171157   -3.021554    0.000038
     41          1           0       -3.704005   -3.373148    0.891379
     42          1           0       -3.704543   -3.373177   -0.890963
     43          1           0       -2.163113   -3.439922   -0.000266
     44         27           0        0.000001   -1.164716    0.000037
 ---------------------------------------------------------------------

 SCF Done:  E(UPBE1PBE) =  -1212.15384203     A.U. after   21 cycles

 Alpha  occ. eigenvalues --  -14.45416 -14.45416 -14.44632 -14.44631 -10.27352
 Alpha  occ. eigenvalues --  -10.27351 -10.27305 -10.27304 -10.27207 -10.27207
 Alpha  occ. eigenvalues --  -10.27145 -10.27145 -10.24752 -10.24752 -10.24190
 Alpha  occ. eigenvalues --  -10.24190 -10.23937 -10.23937 -10.23452 -10.23452
 Alpha  occ. eigenvalues --  -10.23392 -10.23392 -10.21492 -10.21488 -10.21219
 Alpha  occ. eigenvalues --  -10.18318  -3.83396  -2.35478  -2.34896  -2.31340
 Alpha  occ. eigenvalues --   -1.06091  -1.06012  -0.96087  -0.95652  -0.88103
 Alpha  occ. eigenvalues --   -0.87859  -0.85060  -0.79657  -0.78541  -0.77798
 Alpha  occ. eigenvalues --   -0.77729  -0.75727  -0.75076  -0.72520  -0.72345
 Alpha  occ. eigenvalues --   -0.66289  -0.64914  -0.64406  -0.63448  -0.62794
 Alpha  occ. eigenvalues --   -0.61135  -0.58775  -0.57484  -0.56123  -0.53920
 Alpha  occ. eigenvalues --   -0.53034  -0.51670  -0.49516  -0.49452  -0.49084
 Alpha  occ. eigenvalues --   -0.47740  -0.47551  -0.46769  -0.46740  -0.45886
 Alpha  occ. eigenvalues --   -0.45863  -0.44968  -0.44684  -0.44279  -0.43759
 Alpha  occ. eigenvalues --   -0.41965  -0.41827  -0.41353  -0.38594  -0.38543
 Alpha  occ. eigenvalues --   -0.38317  -0.37511  -0.37312  -0.36565  -0.36368
 Alpha  occ. eigenvalues --   -0.35825  -0.34518  -0.34174  -0.33384  -0.31385
 Alpha  occ. eigenvalues --   -0.28775  -0.26764  -0.26418  -0.26214  -0.24903
 Alpha  occ. eigenvalues --   -0.24521  -0.21596  -0.21495  -0.20599  -0.16049
 Alpha  occ. eigenvalues --   -0.15688  -0.15108
 Alpha virt. eigenvalues --   -0.04014  -0.02159  -0.00381   0.00298   0.01027
 Alpha virt. eigenvalues --    0.01478   0.02046   0.03665   0.05408   0.05983
 Alpha virt. eigenvalues --    0.06835   0.07700   0.09256   0.09420   0.10112

  Beta  occ. eigenvalues --  -14.45416 -14.45416 -14.44632 -14.44631 -10.27352
  Beta  occ. eigenvalues --  -10.27351 -10.27305 -10.27304 -10.27207 -10.27207
  Beta  occ. eigenvalues --  -10.27145 -10.27145 -10.24752 -10.24752 -10.24190
  Beta  occ. eigenvalues --  -10.24190 -10.23937 -10.23937 -10.23452 -10.23452
  Beta  occ. eigenvalues --  -10.23392 -10.23392 -10.21492 -10.21488 -10.21219
  Beta  occ. eigenvalues --  -10.18318  -3.83396  -2.35478  -2.34896  -2.31340
  Beta  occ. eigenvalues --   -1.06091  -1.06012  -0.96087  -0.95652  -0.88103
  Beta  occ. eigenvalues --   -0.87859  -0.85060  -0.79657  -0.78541  -0.77798
  Beta  occ. eigenvalues --   -0.77729  -0.75727  -0.75076  -0.72520  -0.72345
  Beta  occ. eigenvalues --   -0.66289  -0.64914  -0.64406  -0.63448  -0.62794
  Beta  occ. eigenvalues --   -0.61135  -0.58775  -0.57484  -0.56123  -0.53920
  Beta  occ. eigenvalues --   -0.53034  -0.51670  -0.49516  -0.49452  -0.49084
  Beta  occ. eigenvalues --   -0.47740  -0.47551  -0.46769  -0.46740  -0.45886
  Beta  occ. eigenvalues --   -0.45863  -0.44968  -0.44684  -0.44279  -0.43759
  Beta  occ. eigenvalues --   -0.41965  -0.41827  -0.41353  -0.38594  -0.38543
  Beta  occ. eigenvalues --   -0.38317  -0.37511  -0.37312  -0.36565  -0.36368
  Beta  occ. eigenvalues --   -0.35825  -0.34518  -0.34174  -0.33384  -0.31385
  Beta  occ. eigenvalues --   -0.28775  -0.26764  -0.26418  -0.26214  -0.24903
  Beta  occ. eigenvalues --   -0.24521  -0.21596  -0.21495  -0.20599  -0.16049
  Beta  occ. eigenvalues --   -0.15688  -0.15108
  Beta virt. eigenvalues --   -0.04014  -0.02159  -0.00381   0.00298   0.01027
  Beta virt. eigenvalues --    0.01478   0.02046   0.03665   0.05408   0.05983
  Beta virt. eigenvalues --    0.06835   0.07700   0.09256   0.09420   0.10112

 Mulliken charges and spin densities:
               1          2
     1  C   -0.212446  -0.000000
     2  C    0.281745  -0.000000
     3  C   -0.185501   0.000000
     4  C   -0.210611  -0.000000
     5  C   -0.185501   0.000000
     6  C    0.281746  -0.000000
     7  H    0.164567  -0.000000
     8  H    0.159232   0.000000
     9  H    0.164567  -0.000000
    10  C    0.310946   0.000000
    11  C    0.412335  -0.000000
    12  C    0.279459   0.000000
    13  C   -0.186068  -0.000000
    14  C   -0.203671  -0.000000
    15  C   -0.186967  -0.000000
    16  H    0.194590   0.000000
    17  C   -0.187473   0.000000
    18  H    0.176882   0.000000
    19  H    0.172803   0.000000
    20  H    0.171858  -0.000000
    21  C    0.310944   0.000000
    22  C    0.412335  -0.000000
    23  C    0.279459   0.000000
    24  C   -0.186068  -0.000000
    25  C   -0.203672  -0.000000
    26  C   -0.186965  -0.000000
    27  H    0.194590   0.000000
    28  C   -0.187473   0.000000
    29  H    0.176882   0.000000
    30  H    0.172803   0.000000
    31  H    0.171858  -0.000000
    32  N   -0.707705   0.000000
    33  N   -0.602747  -0.000000
    34  N   -0.707704   0.000000
    35  N   -0.602746  -0.000000
    36  C   -0.398164   0.000000
    37  H    0.201681  -0.000000
    38  H    0.201691  -0.000000
    39  H    0.222321   0.000000
    40  C   -0.398164   0.000000
    41  H    0.201691  -0.000000
    42  H    0.201681  -0.000000
    43  H    0.222321   0.000000
    44  Co  -0.001340   0.000000
 Sum of Mulliken charges =  -0.00000   0.00000

 Dipole moment (field-independent basis, Debye):
    X=              0.0000    Y=             -3.4997    Z=             -0.0003  Tot=              3.4997
 Quadrupole moment (field-independent basis, Debye-Ang):
   XX=           -126.7110   YY=           -134.0201   ZZ=           -172.1297
   XY=             -0.0000   XZ=             -0.0005   YZ=              0.0005

 Normal termination of Gaussian 16 at Wed Jul 17 20:55:59 2024.
