 Gaussian 16, Revision C.01,
 Gaussian 16:  ES64L-G16RevC.01  3-Jul-2019

 ----------------------------------------------------------------------
 # pbe1pbe em=gd3bj genecp g09default scf=(xqc,maxcycle=64) force guess
 =read nosymm
 ----------------------------------------------------------------------

 ----------
 Title Card
 ----------
 Symbolic Z-matrix:
 Charge =  0 Multiplicity = 3

                          Input orientation:
 ---------------------------------------------------------------------
 Center     Atomic      Atomic             Coordinates (Angstroms)
 Number     Number       Type             X           Y           Z
 ---------------------------------------------------------------------
      1          6           0        0.000003    0.640092    0.000126
      2          6           0       -1.197450    1.359416    0.000049
      3          6           0       -1.225544    2.750112   -0.000004
      4          6           0        0.000002    3.429353    0.000015
      5          6           0        1.225548    2.750112    0.000047
      6          6           0        1.197455    1.359415    0.000095
      7          1           0       -2.147109    3.322401   -0.000048
      8          1           0        0.000001    4.516884   -0.000011
      9          1           0        2.147111    3.322401    0.000048
     10          6           0        3.648929    0.573564   -0.000021
     11          6           0        1.883641   -0.897266    0.000116
     12          6           0        4.162787   -0.736609   -0.000112
     13          6           0        4.519226    1.662230   -0.000050
     14          6           0        5.528432   -1.001741   -0.000209
     15          6           0        5.889658    1.400230   -0.000167
     16          1           0        4.160090    2.685031    0.000014
     17          6           0        6.390804    0.094180   -0.000239
     18          1           0        5.909550   -2.019074   -0.000251
     19          1           0        6.588781    2.233675   -0.000197
     20          1           0        7.463900   -0.071491   -0.000321
     21          6           0       -3.648925    0.573556   -0.000032
     22          6           0       -1.883635   -0.897269    0.000051
     23          6           0       -4.162783   -0.736614   -0.000069
     24          6           0       -4.519226    1.662226   -0.000048
     25          6           0       -5.528426   -1.001750   -0.000106
     26          6           0       -5.889656    1.400222   -0.000095
     27          1           0       -4.160090    2.685025   -0.000021
     28          6           0       -6.390800    0.094172   -0.000120
     29          1           0       -5.909544   -2.019082   -0.000112
     30          1           0       -6.588780    2.233666   -0.000110
     31          1           0       -7.463895   -0.071502   -0.000149
     32          7           0       -2.267176    0.435532    0.000019
     33          7           0       -3.063311   -1.586129   -0.000039
     34          7           0        2.267179    0.435536    0.000101
     35          7           0        3.063319   -1.586125   -0.000052
     36          6           0        3.171166   -3.021550   -0.000001
     37          1           0        3.704493   -3.373160   -0.891042
     38          1           0        3.704076   -3.373153    0.891300
     39          1           0        2.163122   -3.439921   -0.000239
     40          6           0       -3.171157   -3.021554    0.000038
     41          1           0       -3.704005   -3.373148    0.891379
     42          1           0       -3.704543   -3.373177   -0.890963
     43          1           0       -2.163113   -3.439922   -0.000266
     44         27           0        0.000001   -1.164716    0.000037
 ---------------------------------------------------------------------

 SCF Done:  E(UPBE1PBE) =  -1212.13543848     A.U. after   27 cycles

 Alpha  occ. eigenvalues --  -14.45007 -14.45007 -14.44524 -14.44523 -10.27245
 Alpha  occ. eigenvalues --  -10.27245 -10.27206 -10.27206 -10.27170 -10.27170
 Alpha  occ. eigenvalues --  -10.26953 -10.26953 -10.26211 -10.26211 -10.23695
 Alpha  occ. eigenvalues --  -10.23695 -10.23538 -10.23538 -10.23040 -10.23040
 Alpha  occ. eigenvalues --  -10.22952 -10.22952 -10.22621 -10.22307 -10.22304
 Alpha  occ. eigenvalues --  -10.19665  -3.93737  -2.46704  -2.43631  -2.42704
 Alpha  occ. eigenvalues --   -1.06032  -1.05935  -0.96249  -0.95725  -0.87981
 Alpha  occ. eigenvalues --   -0.87569  -0.85774  -0.79856  -0.78830  -0.77579
 Alpha  occ. eigenvalues --   -0.77458  -0.75740  -0.75062  -0.72884  -0.72881
 Alpha  occ. eigenvalues --   -0.66505  -0.65069  -0.64271  -0.63557  -0.62944
 Alpha  occ. eigenvalues --   -0.61157  -0.58776  -0.58027  -0.56105  -0.53797
 Alpha  occ. eigenvalues --   -0.52979  -0.51945  -0.49641  -0.49550  -0.49469
 Alpha  occ. eigenvalues --   -0.47984  -0.47331  -0.46916  -0.46808  -0.45775
 Alpha  occ. eigenvalues --   -0.45717  -0.44966  -0.44762  -0.44626  -0.43901
 Alpha  occ. eigenvalues --   -0.42127  -0.42038  -0.41693  -0.39293  -0.38904
 Alpha  occ. eigenvalues --   -0.38626  -0.38163  -0.37612  -0.37196  -0.36653
 Alpha  occ. eigenvalues --   -0.36083  -0.34763  -0.34637  -0.33602  -0.32337
 Alpha  occ. eigenvalues --   -0.31740  -0.31219  -0.30139  -0.27346  -0.27003
 Alpha  occ. eigenvalues --   -0.26508  -0.26034  -0.24615  -0.23728  -0.22942
 Alpha  occ. eigenvalues --   -0.20932  -0.20866  -0.09710
 Alpha virt. eigenvalues --   -0.05625  -0.01966  -0.00001   0.00305   0.00310
 Alpha virt. eigenvalues --    0.02288   0.03029   0.03728   0.04631   0.05665
 Alpha virt. eigenvalues --    0.06577   0.07959   0.08008   0.09783   0.10220

  Beta  occ. eigenvalues --  -14.44871 -14.44871 -14.44494 -14.44493 -10.27215
  Beta  occ. eigenvalues --  -10.27214 -10.27178 -10.27178 -10.27048 -10.27047
  Beta  occ. eigenvalues --  -10.26988 -10.26987 -10.26040 -10.26040 -10.23640
  Beta  occ. eigenvalues --  -10.23640 -10.23508 -10.23508 -10.23040 -10.23040
  Beta  occ. eigenvalues --  -10.22924 -10.22924 -10.22452 -10.22419 -10.22385
  Beta  occ. eigenvalues --  -10.19934  -3.87368  -2.39201  -2.38367  -2.34939
  Beta  occ. eigenvalues --   -1.05823  -1.05726  -0.96032  -0.95500  -0.87913
  Beta  occ. eigenvalues --   -0.87493  -0.85698  -0.79745  -0.78758  -0.77512
  Beta  occ. eigenvalues --   -0.77379  -0.75590  -0.74870  -0.72881  -0.72879
  Beta  occ. eigenvalues --   -0.66515  -0.64772  -0.64054  -0.63559  -0.62855
  Beta  occ. eigenvalues --   -0.61055  -0.58727  -0.57928  -0.56060  -0.53735
  Beta  occ. eigenvalues --   -0.52937  -0.51860  -0.49485  -0.49171  -0.49102
  Beta  occ. eigenvalues --   -0.47873  -0.47296  -0.46853  -0.46775  -0.45732
  Beta  occ. eigenvalues --   -0.45697  -0.44908  -0.44740  -0.44208  -0.43595
  Beta  occ. eigenvalues --   -0.42130  -0.42005  -0.41684  -0.39307  -0.38598
  Beta  occ. eigenvalues --   -0.38387  -0.37686  -0.37182  -0.36838  -0.36202
  Beta  occ. eigenvalues --   -0.36064  -0.34611  -0.34202  -0.32952  -0.31387
  Beta  occ. eigenvalues --   -0.31303  -0.29564  -0.26262  -0.26115  -0.25266
  Beta  occ. eigenvalues --   -0.24864  -0.23968  -0.22132  -0.21126  -0.20684
  Beta  occ. eigenvalues --   -0.20037
  Beta virt. eigenvalues --   -0.04666  -0.04150  -0.01572  -0.00250   0.00217
  Beta virt. eigenvalues --    0.01267   0.01771   0.02437   0.03782   0.05737
  Beta virt. eigenvalues --    0.06033   0.06116   0.08201   0.09108   0.09270

 Mulliken charges and spin densities:
               1          2
     1  C   -0.307704  -0.157637
     2  C    0.327614   0.112453
     3  C   -0.186706  -0.081180
     4  C   -0.204707   0.145714
     5  C   -0.186706  -0.081181
     6  C    0.327614   0.112454
     7  H    0.173911   0.001489
     8  H    0.167792  -0.007695
     9  H    0.173911   0.001489
    10  C    0.311872  -0.004220
    11  C    0.379697   0.171861
    12  C    0.282707  -0.020352
    13  C   -0.191233   0.019410
    14  C   -0.209802   0.039767
    15  C   -0.188689   0.019221
    16  H    0.188775  -0.001191
    17  C   -0.187161  -0.003047
    18  H    0.173472  -0.002117
    19  H    0.169616  -0.001221
    20  H    0.169345  -0.000158
    21  C    0.311871  -0.004221
    22  C    0.379697   0.171858
    23  C    0.282708  -0.020351
    24  C   -0.191232   0.019411
    25  C   -0.209802   0.039766
    26  C   -0.188687   0.019220
    27  H    0.188775  -0.001191
    28  C   -0.187162  -0.003046
    29  H    0.173473  -0.002117
    30  H    0.169616  -0.001221
    31  H    0.169345  -0.000158
    32  N   -0.714004  -0.003033
    33  N   -0.608113   0.041575
    34  N   -0.714003  -0.003033
    35  N   -0.608113   0.041575
    36  C   -0.396625  -0.004554
    37  H    0.202342   0.002143
    38  H    0.202349   0.002147
    39  H    0.213228  -0.000466
    40  C   -0.396625  -0.004554
    41  H    0.202349   0.002147
    42  H    0.202341   0.002142
    43  H    0.213228  -0.000466
    44  Co   0.119422   1.442563
 Sum of Mulliken charges =  -0.00000   2.00000

 Dipole moment (field-independent basis, Debye):
    X=             -0.0000    Y=             -3.2815    Z=             -0.0004  Tot=              3.2815
 Quadrupole moment (field-independent basis, Debye-Ang):
   XX=           -136.3993   YY=           -132.0964   ZZ=           -173.9182
   XY=             -0.0000   XZ=             -0.0004   YZ=              0.0010

 Normal termination of Gaussian 16 at Wed Jul 17 20:55:18 2024.
