 Gaussian 16, Revision C.01,
 Gaussian 16:  ES64L-G16RevC.01  3-Jul-2019

 ----------------------------------------------------------------------
 # pbe1pbe em=gd3bj genecp g09default scf=(xqc,maxcycle=64) force guess
 =read nosymm
 ----------------------------------------------------------------------

 ----------
 Title Card
 ----------
 Symbolic Z-matrix:
 Charge =  0 Multiplicity = 1

                          Input orientation:
 ---------------------------------------------------------------------
 Center     Atomic      Atomic             Coordinates (Angstroms)
 Number     Number       Type             X           Y           Z
 ---------------------------------------------------------------------
      1          6           0        0.000002    0.692172    0.000126
      2          6           0       -1.234306    1.357391    0.000042
      3          6           0       -1.239631    2.746376   -0.000006
      4          6           0        0.000002    3.407992    0.000014
      5          6           0        1.239634    2.746376    0.000044
      6          6           0        1.234311    1.357391    0.000085
      7          1           0       -2.154481    3.327033   -0.000047
      8          1           0        0.000001    4.495887   -0.000011
      9          1           0        2.154483    3.327034    0.000048
     10          6           0        3.661645    0.579158   -0.000022
     11          6           0        1.888086   -0.898964    0.000113
     12          6           0        4.165802   -0.737793   -0.000102
     13          6           0        4.525509    1.663684   -0.000052
     14          6           0        5.529920   -1.001499   -0.000203
     15          6           0        5.902053    1.400886   -0.000169
     16          1           0        4.162245    2.684762    0.000013
     17          6           0        6.394570    0.098678   -0.000241
     18          1           0        5.908857   -2.019332   -0.000249
     19          1           0        6.596489    2.236572   -0.000196
     20          1           0        7.466519   -0.071224   -0.000324
     21          6           0       -3.661643    0.579153   -0.000035
     22          6           0       -1.888082   -0.898966    0.000064
     23          6           0       -4.165795   -0.737798   -0.000068
     24          6           0       -4.525506    1.663677   -0.000050
     25          6           0       -5.529916   -1.001508   -0.000104
     26          6           0       -5.902053    1.400878   -0.000097
     27          1           0       -4.162245    2.684757   -0.000022
     28          6           0       -6.394564    0.098669   -0.000121
     29          1           0       -5.908849   -2.019340   -0.000109
     30          1           0       -6.596488    2.236562   -0.000109
     31          1           0       -7.466515   -0.071235   -0.000151
     32          7           0       -2.277978    0.452544    0.000016
     33          7           0       -3.077009   -1.591232   -0.000041
     34          7           0        2.277982    0.452547    0.000092
     35          7           0        3.077017   -1.591228   -0.000050
     36          6           0        3.177731   -3.022125    0.000003
     37          1           0        3.705657   -3.380660   -0.892355
     38          1           0        3.705233   -3.380661    0.892619
     39          1           0        2.169717   -3.442916   -0.000248
     40          6           0       -3.177722   -3.022128    0.000041
     41          1           0       -3.705162   -3.380653    0.892698
     42          1           0       -3.705708   -3.380678   -0.892275
     43          1           0       -2.169708   -3.442917   -0.000275
     44         27           0        0.000003   -1.183246    0.000051
 ---------------------------------------------------------------------

 SCF Done:  E(UPBE1PBE) =  -1212.14861609     A.U. after   16 cycles

 Alpha  occ. eigenvalues --  -14.45566 -14.45566 -14.44814 -14.44813 -10.27704
 Alpha  occ. eigenvalues --  -10.27703 -10.27454 -10.27453 -10.27307 -10.27307
 Alpha  occ. eigenvalues --  -10.27218 -10.27218 -10.24789 -10.24789 -10.24185
 Alpha  occ. eigenvalues --  -10.24185 -10.23922 -10.23922 -10.23451 -10.23451
 Alpha  occ. eigenvalues --  -10.23396 -10.23396 -10.21397 -10.21392 -10.21181
 Alpha  occ. eigenvalues --  -10.18599  -3.83391  -2.35295  -2.34984  -2.31346
 Alpha  occ. eigenvalues --   -1.06008  -1.05930  -0.96568  -0.96179  -0.88157
 Alpha  occ. eigenvalues --   -0.87917  -0.84887  -0.79992  -0.78599  -0.77823
 Alpha  occ. eigenvalues --   -0.77806  -0.75708  -0.75081  -0.72676  -0.72001
 Alpha  occ. eigenvalues --   -0.66435  -0.65046  -0.64497  -0.63737  -0.62745
 Alpha  occ. eigenvalues --   -0.61276  -0.58807  -0.57368  -0.56357  -0.53992
 Alpha  occ. eigenvalues --   -0.53070  -0.51749  -0.49590  -0.49527  -0.48970
 Alpha  occ. eigenvalues --   -0.47898  -0.47545  -0.47198  -0.46737  -0.46007
 Alpha  occ. eigenvalues --   -0.45857  -0.45042  -0.45000  -0.44445  -0.43914
 Alpha  occ. eigenvalues --   -0.42090  -0.41951  -0.41206  -0.38492  -0.38398
 Alpha  occ. eigenvalues --   -0.38391  -0.37425  -0.37090  -0.36708  -0.36561
 Alpha  occ. eigenvalues --   -0.35784  -0.34449  -0.34408  -0.33615  -0.31409
 Alpha  occ. eigenvalues --   -0.28940  -0.26537  -0.26053  -0.25208  -0.24887
 Alpha  occ. eigenvalues --   -0.24505  -0.21398  -0.21125  -0.20549  -0.16135
 Alpha  occ. eigenvalues --   -0.15633  -0.15116
 Alpha virt. eigenvalues --   -0.04313  -0.02285  -0.00468   0.00172   0.00930
 Alpha virt. eigenvalues --    0.01420   0.02045   0.03560   0.05369   0.05942
 Alpha virt. eigenvalues --    0.06687   0.07532   0.09329   0.09335   0.10118

  Beta  occ. eigenvalues --  -14.45566 -14.45566 -14.44814 -14.44813 -10.27704
  Beta  occ. eigenvalues --  -10.27703 -10.27454 -10.27453 -10.27307 -10.27307
  Beta  occ. eigenvalues --  -10.27218 -10.27218 -10.24789 -10.24789 -10.24185
  Beta  occ. eigenvalues --  -10.24185 -10.23922 -10.23922 -10.23451 -10.23451
  Beta  occ. eigenvalues --  -10.23396 -10.23396 -10.21397 -10.21392 -10.21181
  Beta  occ. eigenvalues --  -10.18599  -3.83391  -2.35295  -2.34984  -2.31346
  Beta  occ. eigenvalues --   -1.06008  -1.05930  -0.96568  -0.96179  -0.88157
  Beta  occ. eigenvalues --   -0.87917  -0.84887  -0.79992  -0.78599  -0.77823
  Beta  occ. eigenvalues --   -0.77806  -0.75708  -0.75081  -0.72676  -0.72001
  Beta  occ. eigenvalues --   -0.66435  -0.65046  -0.64497  -0.63737  -0.62745
  Beta  occ. eigenvalues --   -0.61276  -0.58807  -0.57368  -0.56357  -0.53992
  Beta  occ. eigenvalues --   -0.53070  -0.51749  -0.49590  -0.49527  -0.48970
  Beta  occ. eigenvalues --   -0.47898  -0.47545  -0.47198  -0.46737  -0.46007
  Beta  occ. eigenvalues --   -0.45857  -0.45042  -0.45000  -0.44445  -0.43914
  Beta  occ. eigenvalues --   -0.42090  -0.41951  -0.41206  -0.38492  -0.38398
  Beta  occ. eigenvalues --   -0.38391  -0.37425  -0.37090  -0.36708  -0.36561
  Beta  occ. eigenvalues --   -0.35784  -0.34449  -0.34408  -0.33615  -0.31409
  Beta  occ. eigenvalues --   -0.28940  -0.26537  -0.26053  -0.25208  -0.24887
  Beta  occ. eigenvalues --   -0.24505  -0.21398  -0.21125  -0.20549  -0.16135
  Beta  occ. eigenvalues --   -0.15633  -0.15116
  Beta virt. eigenvalues --   -0.04313  -0.02285  -0.00468   0.00172   0.00930
  Beta virt. eigenvalues --    0.01420   0.02045   0.03560   0.05369   0.05942
  Beta virt. eigenvalues --    0.06687   0.07532   0.09329   0.09335   0.10118

 Mulliken charges and spin densities:
               1          2
     1  C   -0.205798   0.000000
     2  C    0.306173  -0.000000
     3  C   -0.191115   0.000000
     4  C   -0.206357  -0.000000
     5  C   -0.191114   0.000000
     6  C    0.306173  -0.000000
     7  H    0.162274   0.000000
     8  H    0.156539   0.000000
     9  H    0.162274   0.000000
    10  C    0.313880  -0.000000
    11  C    0.408073   0.000000
    12  C    0.284694  -0.000000
    13  C   -0.188652   0.000000
    14  C   -0.207379   0.000000
    15  C   -0.187080  -0.000000
    16  H    0.195714  -0.000000
    17  C   -0.186112   0.000000
    18  H    0.176915  -0.000000
    19  H    0.173354  -0.000000
    20  H    0.171489  -0.000000
    21  C    0.313883  -0.000000
    22  C    0.408074   0.000000
    23  C    0.284689  -0.000000
    24  C   -0.188654   0.000000
    25  C   -0.207377   0.000000
    26  C   -0.187079  -0.000000
    27  H    0.195714  -0.000000
    28  C   -0.186113   0.000000
    29  H    0.176916  -0.000000
    30  H    0.173355  -0.000000
    31  H    0.171488  -0.000000
    32  N   -0.714267   0.000000
    33  N   -0.596905   0.000000
    34  N   -0.714266   0.000000
    35  N   -0.596907   0.000000
    36  C   -0.399852   0.000000
    37  H    0.201830   0.000000
    38  H    0.201839  -0.000000
    39  H    0.223340   0.000000
    40  C   -0.399852   0.000000
    41  H    0.201840  -0.000000
    42  H    0.201830   0.000000
    43  H    0.223341   0.000000
    44  Co  -0.040810  -0.000000
 Sum of Mulliken charges =  -0.00000   0.00000

 Dipole moment (field-independent basis, Debye):
    X=             -0.0000    Y=             -3.6178    Z=             -0.0003  Tot=              3.6178
 Quadrupole moment (field-independent basis, Debye-Ang):
   XX=           -126.6274   YY=           -134.3732   ZZ=           -172.1470
   XY=             -0.0000   XZ=             -0.0005   YZ=              0.0005

 Normal termination of Gaussian 16 at Wed Jul 17 20:57:30 2024.
