 Gaussian 16, Revision C.01,
 Gaussian 16:  ES64L-G16RevC.01  3-Jul-2019

 ----------------------------------------------------------------------
 # pbe1pbe em=gd3bj genecp g09default scf=(xqc,maxcycle=64) force guess
 =read nosymm
 ----------------------------------------------------------------------

 ----------
 Title Card
 ----------
 Symbolic Z-matrix:
 Charge =  0 Multiplicity = 3

                          Input orientation:
 ---------------------------------------------------------------------
 Center     Atomic      Atomic             Coordinates (Angstroms)
 Number     Number       Type             X           Y           Z
 ---------------------------------------------------------------------
      1          6           0        0.000002    0.692172    0.000126
      2          6           0       -1.234306    1.357391    0.000042
      3          6           0       -1.239631    2.746376   -0.000006
      4          6           0        0.000002    3.407992    0.000014
      5          6           0        1.239634    2.746376    0.000044
      6          6           0        1.234311    1.357391    0.000085
      7          1           0       -2.154481    3.327033   -0.000047
      8          1           0        0.000001    4.495887   -0.000011
      9          1           0        2.154483    3.327034    0.000048
     10          6           0        3.661645    0.579158   -0.000022
     11          6           0        1.888086   -0.898964    0.000113
     12          6           0        4.165802   -0.737793   -0.000102
     13          6           0        4.525509    1.663684   -0.000052
     14          6           0        5.529920   -1.001499   -0.000203
     15          6           0        5.902053    1.400886   -0.000169
     16          1           0        4.162245    2.684762    0.000013
     17          6           0        6.394570    0.098678   -0.000241
     18          1           0        5.908857   -2.019332   -0.000249
     19          1           0        6.596489    2.236572   -0.000196
     20          1           0        7.466519   -0.071224   -0.000324
     21          6           0       -3.661643    0.579153   -0.000035
     22          6           0       -1.888082   -0.898966    0.000064
     23          6           0       -4.165795   -0.737798   -0.000068
     24          6           0       -4.525506    1.663677   -0.000050
     25          6           0       -5.529916   -1.001508   -0.000104
     26          6           0       -5.902053    1.400878   -0.000097
     27          1           0       -4.162245    2.684757   -0.000022
     28          6           0       -6.394564    0.098669   -0.000121
     29          1           0       -5.908849   -2.019340   -0.000109
     30          1           0       -6.596488    2.236562   -0.000109
     31          1           0       -7.466515   -0.071235   -0.000151
     32          7           0       -2.277978    0.452544    0.000016
     33          7           0       -3.077009   -1.591232   -0.000041
     34          7           0        2.277982    0.452547    0.000092
     35          7           0        3.077017   -1.591228   -0.000050
     36          6           0        3.177731   -3.022125    0.000003
     37          1           0        3.705657   -3.380660   -0.892355
     38          1           0        3.705233   -3.380661    0.892619
     39          1           0        2.169717   -3.442916   -0.000248
     40          6           0       -3.177722   -3.022128    0.000041
     41          1           0       -3.705162   -3.380653    0.892698
     42          1           0       -3.705708   -3.380678   -0.892275
     43          1           0       -2.169708   -3.442917   -0.000275
     44         27           0        0.000003   -1.183246    0.000051
 ---------------------------------------------------------------------

 SCF Done:  E(UPBE1PBE) =  -1212.13642803     A.U. after   33 cycles

 Alpha  occ. eigenvalues --  -14.45116 -14.45116 -14.44656 -14.44655 -10.27553
 Alpha  occ. eigenvalues --  -10.27553 -10.27265 -10.27264 -10.27249 -10.27249
 Alpha  occ. eigenvalues --  -10.27028 -10.27028 -10.26142 -10.26142 -10.23686
 Alpha  occ. eigenvalues --  -10.23686 -10.23525 -10.23525 -10.23037 -10.23037
 Alpha  occ. eigenvalues --  -10.22951 -10.22951 -10.22498 -10.22200 -10.22197
 Alpha  occ. eigenvalues --  -10.20015  -3.93716  -2.46374  -2.43713  -2.42888
 Alpha  occ. eigenvalues --   -1.05916  -1.05821  -0.96681  -0.96220  -0.88005
 Alpha  occ. eigenvalues --   -0.87621  -0.85546  -0.80150  -0.78788  -0.77619
 Alpha  occ. eigenvalues --   -0.77530  -0.75690  -0.75019  -0.72993  -0.72531
 Alpha  occ. eigenvalues --   -0.66628  -0.65204  -0.64352  -0.63810  -0.62858
 Alpha  occ. eigenvalues --   -0.61263  -0.58787  -0.57848  -0.56306  -0.53848
 Alpha  occ. eigenvalues --   -0.52990  -0.52010  -0.49693  -0.49605  -0.49209
 Alpha  occ. eigenvalues --   -0.48185  -0.47466  -0.47224  -0.46869  -0.45834
 Alpha  occ. eigenvalues --   -0.45720  -0.45180  -0.44786  -0.44761  -0.44043
 Alpha  occ. eigenvalues --   -0.42388  -0.42010  -0.41489  -0.38868  -0.38776
 Alpha  occ. eigenvalues --   -0.38608  -0.38173  -0.37377  -0.37252  -0.36785
 Alpha  occ. eigenvalues --   -0.36256  -0.34811  -0.34646  -0.33807  -0.32107
 Alpha  occ. eigenvalues --   -0.31730  -0.30330  -0.29682  -0.27142  -0.27025
 Alpha  occ. eigenvalues --   -0.26585  -0.25989  -0.24611  -0.23876  -0.22917
 Alpha  occ. eigenvalues --   -0.20824  -0.20569  -0.10003
 Alpha virt. eigenvalues --   -0.05869  -0.02310  -0.00044   0.00228   0.00310
 Alpha virt. eigenvalues --    0.02294   0.02939   0.03781   0.04404   0.05619
 Alpha virt. eigenvalues --    0.06404   0.07991   0.07997   0.09793   0.10234

  Beta  occ. eigenvalues --  -14.44978 -14.44978 -14.44628 -14.44627 -10.27335
  Beta  occ. eigenvalues --  -10.27334 -10.27274 -10.27273 -10.27254 -10.27253
  Beta  occ. eigenvalues --  -10.27064 -10.27063 -10.25994 -10.25994 -10.23629
  Beta  occ. eigenvalues --  -10.23628 -10.23500 -10.23500 -10.23040 -10.23040
  Beta  occ. eigenvalues --  -10.22921 -10.22921 -10.22348 -10.22303 -10.22280
  Beta  occ. eigenvalues --  -10.20338  -3.87077  -2.38708  -2.38059  -2.34806
  Beta  occ. eigenvalues --   -1.05702  -1.05606  -0.96471  -0.95994  -0.87948
  Beta  occ. eigenvalues --   -0.87545  -0.85512  -0.80052  -0.78733  -0.77555
  Beta  occ. eigenvalues --   -0.77455  -0.75536  -0.74817  -0.72993  -0.72577
  Beta  occ. eigenvalues --   -0.66647  -0.64930  -0.64115  -0.63821  -0.62787
  Beta  occ. eigenvalues --   -0.61159  -0.58749  -0.57793  -0.56270  -0.53795
  Beta  occ. eigenvalues --   -0.52953  -0.51940  -0.49217  -0.49215  -0.49148
  Beta  occ. eigenvalues --   -0.48136  -0.47429  -0.47201  -0.46796  -0.45794
  Beta  occ. eigenvalues --   -0.45707  -0.45132  -0.44769  -0.44360  -0.43727
  Beta  occ. eigenvalues --   -0.42394  -0.41978  -0.41485  -0.38796  -0.38597
  Beta  occ. eigenvalues --   -0.38443  -0.37492  -0.37236  -0.36723  -0.36350
  Beta  occ. eigenvalues --   -0.36223  -0.34819  -0.34079  -0.33141  -0.31364
  Beta  occ. eigenvalues --   -0.30123  -0.29705  -0.26361  -0.25955  -0.25214
  Beta  occ. eigenvalues --   -0.24582  -0.23918  -0.22047  -0.20756  -0.20496
  Beta  occ. eigenvalues --   -0.19970
  Beta virt. eigenvalues --   -0.04653  -0.04235  -0.01292  -0.00386   0.00133
  Beta virt. eigenvalues --    0.01250   0.01696   0.02445   0.03734   0.05625
  Beta virt. eigenvalues --    0.05973   0.05991   0.08071   0.09200   0.09249

 Mulliken charges and spin densities:
               1          2
     1  C   -0.291340  -0.189976
     2  C    0.351914   0.098066
     3  C   -0.191958  -0.074068
     4  C   -0.201543   0.125370
     5  C   -0.191957  -0.074069
     6  C    0.351914   0.098066
     7  H    0.171832   0.000437
     8  H    0.164636  -0.006525
     9  H    0.171832   0.000437
    10  C    0.314539  -0.002203
    11  C    0.373516   0.186060
    12  C    0.287757  -0.021457
    13  C   -0.193472   0.016265
    14  C   -0.213492   0.041625
    15  C   -0.188988   0.021803
    16  H    0.189931  -0.001041
    17  C   -0.185601  -0.006226
    18  H    0.173466  -0.002187
    19  H    0.170120  -0.001337
    20  H    0.168984  -0.000003
    21  C    0.314542  -0.002203
    22  C    0.373517   0.186057
    23  C    0.287752  -0.021457
    24  C   -0.193474   0.016265
    25  C   -0.213490   0.041625
    26  C   -0.188987   0.021803
    27  H    0.189931  -0.001041
    28  C   -0.185601  -0.006227
    29  H    0.173467  -0.002187
    30  H    0.170121  -0.001337
    31  H    0.168984  -0.000003
    32  N   -0.720883  -0.004229
    33  N   -0.601870   0.041288
    34  N   -0.720882  -0.004229
    35  N   -0.601872   0.041289
    36  C   -0.398306  -0.004669
    37  H    0.202260   0.002213
    38  H    0.202267   0.002218
    39  H    0.214074  -0.000521
    40  C   -0.398306  -0.004669
    41  H    0.202267   0.002218
    42  H    0.202260   0.002213
    43  H    0.214074  -0.000521
    44  Co   0.076061   1.487067
 Sum of Mulliken charges =  -0.00000   2.00000

 Dipole moment (field-independent basis, Debye):
    X=             -0.0000    Y=             -3.4399    Z=             -0.0004  Tot=              3.4399
 Quadrupole moment (field-independent basis, Debye-Ang):
   XX=           -136.3981   YY=           -132.5364   ZZ=           -173.8300
   XY=             -0.0000   XZ=             -0.0004   YZ=              0.0008

 Normal termination of Gaussian 16 at Wed Jul 17 20:56:58 2024.
