 Gaussian 16, Revision C.01,
 Gaussian 16:  ES64L-G16RevC.01  3-Jul-2019

 ----------------------------------------------------------------------
 # pbe1pbe em=gd3bj genecp g09default scf=(xqc,maxcycle=64) force guess
 =read nosymm
 ----------------------------------------------------------------------

 ----------
 Title Card
 ----------
 Symbolic Z-matrix:
 Charge =  0 Multiplicity = 1

                          Input orientation:
 ---------------------------------------------------------------------
 Center     Atomic      Atomic             Coordinates (Angstroms)
 Number     Number       Type             X           Y           Z
 ---------------------------------------------------------------------
      1          6           0        0.000002    0.744763    0.000120
      2          6           0       -1.270352    1.355237    0.000037
      3          6           0       -1.252565    2.742904   -0.000008
      4          6           0        0.000001    3.387087    0.000014
      5          6           0        1.252567    2.742905    0.000042
      6          6           0        1.270355    1.355237    0.000076
      7          1           0       -2.161736    3.331720   -0.000046
      8          1           0        0.000001    4.474718   -0.000011
      9          1           0        2.161737    3.331721    0.000048
     10          6           0        3.674551    0.584606   -0.000022
     11          6           0        1.893885   -0.900584    0.000113
     12          6           0        4.168728   -0.739264   -0.000094
     13          6           0        4.532173    1.664984   -0.000054
     14          6           0        5.531410   -1.001226   -0.000197
     15          6           0        5.914253    1.401822   -0.000170
     16          1           0        4.164595    2.684616    0.000011
     17          6           0        6.398738    0.103028   -0.000242
     18          1           0        5.908310   -2.019530   -0.000246
     19          1           0        6.604494    2.239486   -0.000196
     20          1           0        7.469316   -0.070964   -0.000327
     21          6           0       -3.674549    0.584602   -0.000037
     22          6           0       -1.893881   -0.900586    0.000080
     23          6           0       -4.168721   -0.739268   -0.000067
     24          6           0       -4.532171    1.664978   -0.000053
     25          6           0       -5.531406   -1.001234   -0.000101
     26          6           0       -5.914253    1.401815   -0.000098
     27          1           0       -4.164595    2.684611   -0.000023
     28          6           0       -6.398733    0.103019   -0.000122
     29          1           0       -5.908302   -2.019537   -0.000107
     30          1           0       -6.604493    2.239476   -0.000108
     31          1           0       -7.469311   -0.070975   -0.000152
     32          7           0       -2.289327    0.469682    0.000013
     33          7           0       -3.091438   -1.597058   -0.000044
     34          7           0        2.289330    0.469684    0.000082
     35          7           0        3.091446   -1.597054   -0.000049
     36          6           0        3.184528   -3.022440    0.000006
     37          1           0        3.706930   -3.388241   -0.893612
     38          1           0        3.706497   -3.388251    0.893881
     39          1           0        2.176356   -3.445975   -0.000257
     40          6           0       -3.184518   -3.022443    0.000045
     41          1           0       -3.706426   -3.388241    0.893962
     42          1           0       -3.706980   -3.388261   -0.893531
     43          1           0       -2.176346   -3.445976   -0.000284
     44         27           0        0.000005   -1.201515    0.000063
 ---------------------------------------------------------------------

 SCF Done:  E(UPBE1PBE) =  -1212.13175479     A.U. after   17 cycles

 Alpha  occ. eigenvalues --  -14.45722 -14.45722 -14.44973 -14.44973 -10.28100
 Alpha  occ. eigenvalues --  -10.28100 -10.27552 -10.27551 -10.27407 -10.27407
 Alpha  occ. eigenvalues --  -10.27300 -10.27300 -10.24872 -10.24871 -10.24179
 Alpha  occ. eigenvalues --  -10.24179 -10.23906 -10.23906 -10.23455 -10.23454
 Alpha  occ. eigenvalues --  -10.23400 -10.23400 -10.21304 -10.21299 -10.21083
 Alpha  occ. eigenvalues --  -10.18981  -3.83410  -2.35162  -2.35080  -2.31387
 Alpha  occ. eigenvalues --   -1.05985  -1.05909  -0.97110  -0.96766  -0.88223
 Alpha  occ. eigenvalues --   -0.87986  -0.84754  -0.80319  -0.78718  -0.77901
 Alpha  occ. eigenvalues --   -0.77853  -0.75677  -0.75099  -0.72831  -0.71663
 Alpha  occ. eigenvalues --   -0.66597  -0.65234  -0.64572  -0.63975  -0.62698
 Alpha  occ. eigenvalues --   -0.61429  -0.58817  -0.57273  -0.56581  -0.54087
 Alpha  occ. eigenvalues --   -0.53144  -0.51825  -0.49694  -0.49631  -0.48972
 Alpha  occ. eigenvalues --   -0.47968  -0.47931  -0.47460  -0.46690  -0.46155
 Alpha  occ. eigenvalues --   -0.45789  -0.45277  -0.45017  -0.44644  -0.44099
 Alpha  occ. eigenvalues --   -0.42262  -0.41915  -0.40984  -0.38504  -0.38445
 Alpha  occ. eigenvalues --   -0.38248  -0.37500  -0.36892  -0.36775  -0.36615
 Alpha  occ. eigenvalues --   -0.35705  -0.34503  -0.34405  -0.33819  -0.31419
 Alpha  occ. eigenvalues --   -0.29090  -0.26650  -0.25935  -0.24870  -0.24491
 Alpha  occ. eigenvalues --   -0.23681  -0.21281  -0.20655  -0.20500  -0.16219
 Alpha  occ. eigenvalues --   -0.15597  -0.15165
 Alpha virt. eigenvalues --   -0.04622  -0.02430  -0.00570   0.00059   0.00829
 Alpha virt. eigenvalues --    0.01360   0.02038   0.03437   0.05351   0.05895
 Alpha virt. eigenvalues --    0.06501   0.07378   0.09296   0.09365   0.10117

  Beta  occ. eigenvalues --  -14.45722 -14.45722 -14.44973 -14.44973 -10.28100
  Beta  occ. eigenvalues --  -10.28100 -10.27552 -10.27551 -10.27407 -10.27407
  Beta  occ. eigenvalues --  -10.27300 -10.27300 -10.24872 -10.24871 -10.24179
  Beta  occ. eigenvalues --  -10.24179 -10.23906 -10.23906 -10.23455 -10.23454
  Beta  occ. eigenvalues --  -10.23400 -10.23400 -10.21304 -10.21299 -10.21083
  Beta  occ. eigenvalues --  -10.18981  -3.83410  -2.35162  -2.35080  -2.31388
  Beta  occ. eigenvalues --   -1.05985  -1.05909  -0.97110  -0.96766  -0.88223
  Beta  occ. eigenvalues --   -0.87986  -0.84754  -0.80319  -0.78718  -0.77901
  Beta  occ. eigenvalues --   -0.77853  -0.75677  -0.75099  -0.72831  -0.71663
  Beta  occ. eigenvalues --   -0.66597  -0.65234  -0.64572  -0.63975  -0.62698
  Beta  occ. eigenvalues --   -0.61429  -0.58817  -0.57273  -0.56581  -0.54087
  Beta  occ. eigenvalues --   -0.53144  -0.51825  -0.49694  -0.49631  -0.48972
  Beta  occ. eigenvalues --   -0.47968  -0.47931  -0.47460  -0.46690  -0.46155
  Beta  occ. eigenvalues --   -0.45789  -0.45277  -0.45017  -0.44644  -0.44099
  Beta  occ. eigenvalues --   -0.42262  -0.41915  -0.40984  -0.38504  -0.38445
  Beta  occ. eigenvalues --   -0.38248  -0.37500  -0.36892  -0.36775  -0.36615
  Beta  occ. eigenvalues --   -0.35705  -0.34503  -0.34405  -0.33819  -0.31419
  Beta  occ. eigenvalues --   -0.29090  -0.26650  -0.25935  -0.24870  -0.24491
  Beta  occ. eigenvalues --   -0.23681  -0.21281  -0.20655  -0.20500  -0.16219
  Beta  occ. eigenvalues --   -0.15597  -0.15165
  Beta virt. eigenvalues --   -0.04622  -0.02430  -0.00570   0.00059   0.00829
  Beta virt. eigenvalues --    0.01360   0.02038   0.03437   0.05351   0.05895
  Beta virt. eigenvalues --    0.06501   0.07378   0.09296   0.09365   0.10117

 Mulliken charges and spin densities:
               1          2
     1  C   -0.200697   0.000001
     2  C    0.329817  -0.000000
     3  C   -0.200526   0.000000
     4  C   -0.198269  -0.000000
     5  C   -0.200526   0.000000
     6  C    0.329817  -0.000000
     7  H    0.159698   0.000000
     8  H    0.153598   0.000000
     9  H    0.159698   0.000000
    10  C    0.315967  -0.000000
    11  C    0.402632   0.000000
    12  C    0.289776  -0.000000
    13  C   -0.191000   0.000000
    14  C   -0.211352   0.000000
    15  C   -0.187339   0.000000
    16  H    0.196933  -0.000000
    17  C   -0.184644   0.000000
    18  H    0.176869  -0.000000
    19  H    0.173912  -0.000000
    20  H    0.171162   0.000000
    21  C    0.315970  -0.000000
    22  C    0.402633   0.000000
    23  C    0.289772  -0.000000
    24  C   -0.191001   0.000000
    25  C   -0.211349   0.000000
    26  C   -0.187338   0.000000
    27  H    0.196933  -0.000000
    28  C   -0.184644   0.000000
    29  H    0.176869  -0.000000
    30  H    0.173913  -0.000000
    31  H    0.171161   0.000000
    32  N   -0.716911   0.000000
    33  N   -0.590183   0.000000
    34  N   -0.716911   0.000000
    35  N   -0.590185   0.000000
    36  C   -0.401969   0.000000
    37  H    0.201986   0.000000
    38  H    0.201996  -0.000000
    39  H    0.224290   0.000000
    40  C   -0.401969   0.000000
    41  H    0.201996  -0.000000
    42  H    0.201986   0.000000
    43  H    0.224290   0.000000
    44  Co  -0.076861  -0.000002
 Sum of Mulliken charges =  -0.00000   0.00000

 Dipole moment (field-independent basis, Debye):
    X=             -0.0001    Y=             -3.7681    Z=             -0.0003  Tot=              3.7681
 Quadrupole moment (field-independent basis, Debye-Ang):
   XX=           -126.5238   YY=           -134.7948   ZZ=           -172.1539
   XY=              0.0000   XZ=             -0.0005   YZ=              0.0005

 Normal termination of Gaussian 16 at Wed Jul 17 20:58:55 2024.
