 Gaussian 16, Revision C.01,
 Gaussian 16:  ES64L-G16RevC.01  3-Jul-2019

 ----------------------------------------------------------------------
 # pbe1pbe em=gd3bj genecp g09default scf=(xqc,maxcycle=64) force guess
 =read nosymm
 ----------------------------------------------------------------------

 ----------
 Title Card
 ----------
 Symbolic Z-matrix:
 Charge =  0 Multiplicity = 3

                          Input orientation:
 ---------------------------------------------------------------------
 Center     Atomic      Atomic             Coordinates (Angstroms)
 Number     Number       Type             X           Y           Z
 ---------------------------------------------------------------------
      1          6           0        0.000002    0.744763    0.000120
      2          6           0       -1.270352    1.355237    0.000037
      3          6           0       -1.252565    2.742904   -0.000008
      4          6           0        0.000001    3.387087    0.000014
      5          6           0        1.252567    2.742905    0.000042
      6          6           0        1.270355    1.355237    0.000076
      7          1           0       -2.161736    3.331720   -0.000046
      8          1           0        0.000001    4.474718   -0.000011
      9          1           0        2.161737    3.331721    0.000048
     10          6           0        3.674551    0.584606   -0.000022
     11          6           0        1.893885   -0.900584    0.000113
     12          6           0        4.168728   -0.739264   -0.000094
     13          6           0        4.532173    1.664984   -0.000054
     14          6           0        5.531410   -1.001226   -0.000197
     15          6           0        5.914253    1.401822   -0.000170
     16          1           0        4.164595    2.684616    0.000011
     17          6           0        6.398738    0.103028   -0.000242
     18          1           0        5.908310   -2.019530   -0.000246
     19          1           0        6.604494    2.239486   -0.000196
     20          1           0        7.469316   -0.070964   -0.000327
     21          6           0       -3.674549    0.584602   -0.000037
     22          6           0       -1.893881   -0.900586    0.000080
     23          6           0       -4.168721   -0.739268   -0.000067
     24          6           0       -4.532171    1.664978   -0.000053
     25          6           0       -5.531406   -1.001234   -0.000101
     26          6           0       -5.914253    1.401815   -0.000098
     27          1           0       -4.164595    2.684611   -0.000023
     28          6           0       -6.398733    0.103019   -0.000122
     29          1           0       -5.908302   -2.019537   -0.000107
     30          1           0       -6.604493    2.239476   -0.000108
     31          1           0       -7.469311   -0.070975   -0.000152
     32          7           0       -2.289327    0.469682    0.000013
     33          7           0       -3.091438   -1.597058   -0.000044
     34          7           0        2.289330    0.469684    0.000082
     35          7           0        3.091446   -1.597054   -0.000049
     36          6           0        3.184528   -3.022440    0.000006
     37          1           0        3.706930   -3.388241   -0.893612
     38          1           0        3.706497   -3.388251    0.893881
     39          1           0        2.176356   -3.445975   -0.000257
     40          6           0       -3.184518   -3.022443    0.000045
     41          1           0       -3.706426   -3.388241    0.893962
     42          1           0       -3.706980   -3.388261   -0.893531
     43          1           0       -2.176346   -3.445976   -0.000284
     44         27           0        0.000005   -1.201515    0.000063
 ---------------------------------------------------------------------

 SCF Done:  E(UPBE1PBE) =  -1212.12577693     A.U. after   28 cycles

 Alpha  occ. eigenvalues --  -14.45221 -14.45221 -14.44775 -14.44774 -10.27854
 Alpha  occ. eigenvalues --  -10.27853 -10.27330 -10.27329 -10.27313 -10.27312
 Alpha  occ. eigenvalues --  -10.27105 -10.27105 -10.26176 -10.26176 -10.23680
 Alpha  occ. eigenvalues --  -10.23680 -10.23520 -10.23520 -10.23041 -10.23041
 Alpha  occ. eigenvalues --  -10.22957 -10.22957 -10.22366 -10.22128 -10.22124
 Alpha  occ. eigenvalues --  -10.20460  -3.93619  -2.46023  -2.43703  -2.42997
 Alpha  occ. eigenvalues --   -1.05863  -1.05770  -0.97179  -0.96776  -0.88054
 Alpha  occ. eigenvalues --   -0.87688  -0.85380  -0.80440  -0.78833  -0.77663
 Alpha  occ. eigenvalues --   -0.77624  -0.75638  -0.74995  -0.73117  -0.72175
 Alpha  occ. eigenvalues --   -0.66777  -0.65402  -0.64418  -0.64012  -0.62788
 Alpha  occ. eigenvalues --   -0.61389  -0.58785  -0.57694  -0.56516  -0.53929
 Alpha  occ. eigenvalues --   -0.53037  -0.52087  -0.49767  -0.49680  -0.49085
 Alpha  occ. eigenvalues --   -0.48251  -0.48199  -0.47218  -0.46791  -0.45923
 Alpha  occ. eigenvalues --   -0.45708  -0.45296  -0.44933  -0.44824  -0.44215
 Alpha  occ. eigenvalues --   -0.42544  -0.41948  -0.41256  -0.38885  -0.38580
 Alpha  occ. eigenvalues --   -0.38370  -0.38144  -0.37286  -0.37111  -0.36959
 Alpha  occ. eigenvalues --   -0.36392  -0.34898  -0.34558  -0.33981  -0.31925
 Alpha  occ. eigenvalues --   -0.31622  -0.30441  -0.28240  -0.27008  -0.26819
 Alpha  occ. eigenvalues --   -0.26662  -0.25946  -0.24607  -0.23953  -0.22884
 Alpha  occ. eigenvalues --   -0.20701  -0.20265  -0.10303
 Alpha virt. eigenvalues --   -0.06060  -0.02667  -0.00092   0.00148   0.00295
 Alpha virt. eigenvalues --    0.02284   0.02842   0.03840   0.04155   0.05581
 Alpha virt. eigenvalues --    0.06252   0.07943   0.08086   0.09781   0.10233

  Beta  occ. eigenvalues --  -14.45083 -14.45083 -14.44750 -14.44749 -10.27617
  Beta  occ. eigenvalues --  -10.27617 -10.27331 -10.27330 -10.27322 -10.27322
  Beta  occ. eigenvalues --  -10.27141 -10.27141 -10.26044 -10.26044 -10.23621
  Beta  occ. eigenvalues --  -10.23621 -10.23500 -10.23499 -10.23048 -10.23048
  Beta  occ. eigenvalues --  -10.22925 -10.22925 -10.22255 -10.22228 -10.22190
  Beta  occ. eigenvalues --  -10.20869  -3.86605  -2.38014  -2.37555  -2.34546
  Beta  occ. eigenvalues --   -1.05647  -1.05552  -0.96978  -0.96554  -0.88011
  Beta  occ. eigenvalues --   -0.87614  -0.85397  -0.80354  -0.78791  -0.77604
  Beta  occ. eigenvalues --   -0.77553  -0.75484  -0.74785  -0.73122  -0.72285
  Beta  occ. eigenvalues --   -0.66804  -0.65194  -0.64162  -0.64009  -0.62736
  Beta  occ. eigenvalues --   -0.61287  -0.58757  -0.57692  -0.56490  -0.53887
  Beta  occ. eigenvalues --   -0.53008  -0.52036  -0.49287  -0.49216  -0.49038
  Beta  occ. eigenvalues --   -0.48313  -0.48187  -0.47190  -0.46723  -0.45887
  Beta  occ. eigenvalues --   -0.45708  -0.45254  -0.44818  -0.44549  -0.43893
  Beta  occ. eigenvalues --   -0.42554  -0.41917  -0.41258  -0.38591  -0.38534
  Beta  occ. eigenvalues --   -0.38406  -0.37265  -0.37259  -0.36684  -0.36546
  Beta  occ. eigenvalues --   -0.36250  -0.34941  -0.33982  -0.33301  -0.31432
  Beta  occ. eigenvalues --   -0.29801  -0.28836  -0.26465  -0.25843  -0.25109
  Beta  occ. eigenvalues --   -0.24149  -0.23872  -0.21944  -0.20410  -0.20172
  Beta  occ. eigenvalues --   -0.19832
  Beta virt. eigenvalues --   -0.04725  -0.04207  -0.00946  -0.00531   0.00060
  Beta virt. eigenvalues --    0.01256   0.01651   0.02446   0.03670   0.05538
  Beta virt. eigenvalues --    0.05860   0.05954   0.07953   0.09182   0.09329

 Mulliken charges and spin densities:
               1          2
     1  C   -0.278775  -0.240172
     2  C    0.376104   0.088734
     3  C   -0.201312  -0.069702
     4  C   -0.194203   0.109907
     5  C   -0.201311  -0.069702
     6  C    0.376105   0.088735
     7  H    0.169837  -0.000981
     8  H    0.161560  -0.005664
     9  H    0.169837  -0.000981
    10  C    0.316303  -0.000005
    11  C    0.366447   0.198573
    12  C    0.292714  -0.022174
    13  C   -0.195443   0.012814
    14  C   -0.217373   0.042785
    15  C   -0.189409   0.023957
    16  H    0.191098  -0.000874
    17  C   -0.183950  -0.009075
    18  H    0.173465  -0.002222
    19  H    0.170649  -0.001428
    20  H    0.168695   0.000138
    21  C    0.316306  -0.000005
    22  C    0.366450   0.198571
    23  C    0.292710  -0.022174
    24  C   -0.195445   0.012814
    25  C   -0.217370   0.042785
    26  C   -0.189408   0.023958
    27  H    0.191099  -0.000874
    28  C   -0.183950  -0.009075
    29  H    0.173465  -0.002222
    30  H    0.170650  -0.001428
    31  H    0.168695   0.000138
    32  N   -0.723863  -0.006173
    33  N   -0.594753   0.040561
    34  N   -0.723862  -0.006173
    35  N   -0.594755   0.040561
    36  C   -0.400427  -0.004738
    37  H    0.202080   0.002283
    38  H    0.202087   0.002287
    39  H    0.215224  -0.000594
    40  C   -0.400427  -0.004738
    41  H    0.202087   0.002288
    42  H    0.202080   0.002283
    43  H    0.215224  -0.000594
    44  Co   0.035065   1.547595
 Sum of Mulliken charges =  -0.00000   2.00000

 Dipole moment (field-independent basis, Debye):
    X=             -0.0000    Y=             -3.5679    Z=             -0.0003  Tot=              3.5679
 Quadrupole moment (field-independent basis, Debye-Ang):
   XX=           -136.2868   YY=           -133.0311   ZZ=           -173.7388
   XY=             -0.0000   XZ=             -0.0004   YZ=              0.0006

 Normal termination of Gaussian 16 at Wed Jul 17 20:58:22 2024.
