 Gaussian 16, Revision C.01,
 Gaussian 16:  ES64L-G16RevC.01  3-Jul-2019

 ----------------------------------------------------------------------
 # pbe1pbe em=gd3bj genecp g09default scf=(xqc,maxcycle=64) force guess
 =read nosymm
 ----------------------------------------------------------------------

 ----------
 Title Card
 ----------
 Symbolic Z-matrix:
 Charge =  0 Multiplicity = 1

                          Input orientation:
 ---------------------------------------------------------------------
 Center     Atomic      Atomic             Coordinates (Angstroms)
 Number     Number       Type             X           Y           Z
 ---------------------------------------------------------------------
      1          6           0        0.000003    0.792878    0.000106
      2          6           0       -1.306594    1.351129    0.000037
      3          6           0       -1.264448    2.740618   -0.000009
      4          6           0       -0.000001    3.364724    0.000013
      5          6           0        1.264451    2.740620    0.000040
      6          6           0        1.306596    1.351129    0.000072
      7          1           0       -2.169539    3.337457   -0.000046
      8          1           0        0.000000    4.453056   -0.000011
      9          1           0        2.169539    3.337458    0.000046
     10          6           0        3.685322    0.590252   -0.000023
     11          6           0        1.899445   -0.901764    0.000119
     12          6           0        4.169758   -0.741913   -0.000087
     13          6           0        4.539838    1.666928   -0.000056
     14          6           0        5.532830   -1.001006   -0.000191
     15          6           0        5.926779    1.403164   -0.000171
     16          1           0        4.167581    2.684546    0.000009
     17          6           0        6.404047    0.107516   -0.000242
     18          1           0        5.908073   -2.019584   -0.000243
     19          1           0        6.613157    2.242191   -0.000195
     20          1           0        7.472827   -0.070660   -0.000329
     21          6           0       -3.685312    0.590242   -0.000039
     22          6           0       -1.899439   -0.901763    0.000103
     23          6           0       -4.169760   -0.741916   -0.000068
     24          6           0       -4.539843    1.666928   -0.000055
     25          6           0       -5.532816   -1.001015   -0.000099
     26          6           0       -5.926772    1.403154   -0.000100
     27          1           0       -4.167581    2.684540   -0.000024
     28          6           0       -6.404047    0.107510   -0.000123
     29          1           0       -5.908066   -2.019593   -0.000104
     30          1           0       -6.613158    2.242183   -0.000107
     31          1           0       -7.472820   -0.070671   -0.000153
     32          7           0       -2.301582    0.488688    0.000011
     33          7           0       -3.108692   -1.604569   -0.000050
     34          7           0        2.301582    0.488690    0.000074
     35          7           0        3.108698   -1.604565   -0.000051
     36          6           0        3.191628   -3.021314    0.000010
     37          1           0        3.708478   -3.395937   -0.894751
     38          1           0        3.708037   -3.395955    0.895027
     39          1           0        2.183196   -3.449487   -0.000266
     40          6           0       -3.191618   -3.021317    0.000049
     41          1           0       -3.707965   -3.395941    0.895109
     42          1           0       -3.708528   -3.395958   -0.894669
     43          1           0       -2.183185   -3.449489   -0.000293
     44         27           0        0.000006   -1.217105    0.000070
 ---------------------------------------------------------------------

 SCF Done:  E(UPBE1PBE) =  -1212.10284951     A.U. after   16 cycles

 Alpha  occ. eigenvalues --  -14.45895 -14.45895 -14.45153 -14.45153 -10.28546
 Alpha  occ. eigenvalues --  -10.28545 -10.27662 -10.27662 -10.27517 -10.27516
 Alpha  occ. eigenvalues --  -10.27396 -10.27395 -10.25044 -10.25044 -10.24172
 Alpha  occ. eigenvalues --  -10.24172 -10.23893 -10.23893 -10.23451 -10.23451
 Alpha  occ. eigenvalues --  -10.23393 -10.23393 -10.21245 -10.21242 -10.20953
 Alpha  occ. eigenvalues --  -10.19541  -3.83522  -2.35261  -2.35126  -2.31544
 Alpha  occ. eigenvalues --   -1.06069  -1.05995  -0.97825  -0.97532  -0.88253
 Alpha  occ. eigenvalues --   -0.88014  -0.84631  -0.80672  -0.78929  -0.77987
 Alpha  occ. eigenvalues --   -0.77872  -0.75596  -0.75092  -0.72980  -0.71382
 Alpha  occ. eigenvalues --   -0.66849  -0.65526  -0.64627  -0.64136  -0.62645
 Alpha  occ. eigenvalues --   -0.61607  -0.58790  -0.57221  -0.56751  -0.54223
 Alpha  occ. eigenvalues --   -0.53309  -0.51885  -0.49852  -0.49789  -0.49081
 Alpha  occ. eigenvalues --   -0.48763  -0.47964  -0.47452  -0.46634  -0.46257
 Alpha  occ. eigenvalues --   -0.45686  -0.45410  -0.44985  -0.44916  -0.44354
 Alpha  occ. eigenvalues --   -0.42351  -0.41830  -0.40709  -0.38616  -0.38407
 Alpha  occ. eigenvalues --   -0.38133  -0.37524  -0.37116  -0.36953  -0.36131
 Alpha  occ. eigenvalues --   -0.35641  -0.34492  -0.34348  -0.33984  -0.31433
 Alpha  occ. eigenvalues --   -0.29275  -0.26724  -0.25851  -0.24822  -0.24439
 Alpha  occ. eigenvalues --   -0.22359  -0.21131  -0.20522  -0.20232  -0.16312
 Alpha  occ. eigenvalues --   -0.15616  -0.15337
 Alpha virt. eigenvalues --   -0.05032  -0.02617  -0.00717  -0.00086   0.00701
 Alpha virt. eigenvalues --    0.01287   0.02039   0.03270   0.05355   0.05832
 Alpha virt. eigenvalues --    0.06268   0.07219   0.09293   0.09347   0.10135

  Beta  occ. eigenvalues --  -14.45895 -14.45895 -14.45153 -14.45153 -10.28546
  Beta  occ. eigenvalues --  -10.28545 -10.27662 -10.27662 -10.27517 -10.27516
  Beta  occ. eigenvalues --  -10.27396 -10.27395 -10.25044 -10.25044 -10.24172
  Beta  occ. eigenvalues --  -10.24172 -10.23893 -10.23893 -10.23451 -10.23451
  Beta  occ. eigenvalues --  -10.23393 -10.23393 -10.21245 -10.21242 -10.20953
  Beta  occ. eigenvalues --  -10.19541  -3.83523  -2.35261  -2.35127  -2.31545
  Beta  occ. eigenvalues --   -1.06069  -1.05995  -0.97825  -0.97532  -0.88253
  Beta  occ. eigenvalues --   -0.88014  -0.84631  -0.80672  -0.78929  -0.77987
  Beta  occ. eigenvalues --   -0.77872  -0.75596  -0.75092  -0.72980  -0.71382
  Beta  occ. eigenvalues --   -0.66849  -0.65526  -0.64627  -0.64136  -0.62645
  Beta  occ. eigenvalues --   -0.61607  -0.58790  -0.57221  -0.56751  -0.54223
  Beta  occ. eigenvalues --   -0.53309  -0.51885  -0.49852  -0.49789  -0.49081
  Beta  occ. eigenvalues --   -0.48763  -0.47964  -0.47452  -0.46634  -0.46257
  Beta  occ. eigenvalues --   -0.45686  -0.45410  -0.44985  -0.44916  -0.44354
  Beta  occ. eigenvalues --   -0.42351  -0.41830  -0.40709  -0.38616  -0.38407
  Beta  occ. eigenvalues --   -0.38133  -0.37524  -0.37116  -0.36953  -0.36131
  Beta  occ. eigenvalues --   -0.35641  -0.34492  -0.34348  -0.33984  -0.31433
  Beta  occ. eigenvalues --   -0.29275  -0.26724  -0.25851  -0.24822  -0.24439
  Beta  occ. eigenvalues --   -0.22359  -0.21131  -0.20522  -0.20231  -0.16312
  Beta  occ. eigenvalues --   -0.15616  -0.15338
  Beta virt. eigenvalues --   -0.05032  -0.02617  -0.00717  -0.00086   0.00701
  Beta virt. eigenvalues --    0.01287   0.02039   0.03270   0.05355   0.05832
  Beta virt. eigenvalues --    0.06268   0.07219   0.09293   0.09347   0.10135

 Mulliken charges and spin densities:
               1          2
     1  C   -0.196516   0.000012
     2  C    0.345772  -0.000001
     3  C   -0.210400   0.000001
     4  C   -0.188409  -0.000001
     5  C   -0.210401   0.000001
     6  C    0.345775  -0.000001
     7  H    0.157253   0.000000
     8  H    0.150355   0.000000
     9  H    0.157252   0.000000
    10  C    0.316692  -0.000000
    11  C    0.392957   0.000004
    12  C    0.295148  -0.000000
    13  C   -0.192787   0.000000
    14  C   -0.215886   0.000001
    15  C   -0.187608   0.000000
    16  H    0.197915  -0.000000
    17  C   -0.182824  -0.000000
    18  H    0.176575  -0.000000
    19  H    0.174382  -0.000000
    20  H    0.170879   0.000000
    21  C    0.316682  -0.000000
    22  C    0.392959   0.000004
    23  C    0.295158  -0.000000
    24  C   -0.192779   0.000000
    25  C   -0.215894   0.000001
    26  C   -0.187607   0.000000
    27  H    0.197915  -0.000000
    28  C   -0.182825  -0.000000
    29  H    0.176575  -0.000000
    30  H    0.174381  -0.000000
    31  H    0.170880   0.000000
    32  N   -0.711584   0.000000
    33  N   -0.581715   0.000000
    34  N   -0.711588   0.000000
    35  N   -0.581712   0.000000
    36  C   -0.405307   0.000000
    37  H    0.201991   0.000000
    38  H    0.202001   0.000000
    39  H    0.225051   0.000000
    40  C   -0.405306   0.000000
    41  H    0.202000   0.000000
    42  H    0.201990   0.000000
    43  H    0.225051   0.000000
    44  Co  -0.102441  -0.000023
 Sum of Mulliken charges =  -0.00000   0.00000

 Dipole moment (field-independent basis, Debye):
    X=              0.0000    Y=             -3.9532    Z=             -0.0003  Tot=              3.9532
 Quadrupole moment (field-independent basis, Debye-Ang):
   XX=           -126.7501   YY=           -135.3135   ZZ=           -172.1698
   XY=              0.0001   XZ=             -0.0005   YZ=              0.0005

 Normal termination of Gaussian 16 at Wed Jul 17 21:00:16 2024.
