 Gaussian 16, Revision C.01,
 Gaussian 16:  ES64L-G16RevC.01  3-Jul-2019

 ----------------------------------------------------------------------
 # pbe1pbe em=gd3bj genecp g09default scf=(xqc,maxcycle=64) force guess
 =read nosymm
 ----------------------------------------------------------------------

 ----------
 Title Card
 ----------
 Symbolic Z-matrix:
 Charge =  0 Multiplicity = 3

                          Input orientation:
 ---------------------------------------------------------------------
 Center     Atomic      Atomic             Coordinates (Angstroms)
 Number     Number       Type             X           Y           Z
 ---------------------------------------------------------------------
      1          6           0        0.000003    0.792878    0.000106
      2          6           0       -1.306594    1.351129    0.000037
      3          6           0       -1.264448    2.740618   -0.000009
      4          6           0       -0.000001    3.364724    0.000013
      5          6           0        1.264451    2.740620    0.000040
      6          6           0        1.306596    1.351129    0.000072
      7          1           0       -2.169539    3.337457   -0.000046
      8          1           0        0.000000    4.453056   -0.000011
      9          1           0        2.169539    3.337458    0.000046
     10          6           0        3.685322    0.590252   -0.000023
     11          6           0        1.899445   -0.901764    0.000119
     12          6           0        4.169758   -0.741913   -0.000087
     13          6           0        4.539838    1.666928   -0.000056
     14          6           0        5.532830   -1.001006   -0.000191
     15          6           0        5.926779    1.403164   -0.000171
     16          1           0        4.167581    2.684546    0.000009
     17          6           0        6.404047    0.107516   -0.000242
     18          1           0        5.908073   -2.019584   -0.000243
     19          1           0        6.613157    2.242191   -0.000195
     20          1           0        7.472827   -0.070660   -0.000329
     21          6           0       -3.685312    0.590242   -0.000039
     22          6           0       -1.899439   -0.901763    0.000103
     23          6           0       -4.169760   -0.741916   -0.000068
     24          6           0       -4.539843    1.666928   -0.000055
     25          6           0       -5.532816   -1.001015   -0.000099
     26          6           0       -5.926772    1.403154   -0.000100
     27          1           0       -4.167581    2.684540   -0.000024
     28          6           0       -6.404047    0.107510   -0.000123
     29          1           0       -5.908066   -2.019593   -0.000104
     30          1           0       -6.613158    2.242183   -0.000107
     31          1           0       -7.472820   -0.070671   -0.000153
     32          7           0       -2.301582    0.488688    0.000011
     33          7           0       -3.108692   -1.604569   -0.000050
     34          7           0        2.301582    0.488690    0.000074
     35          7           0        3.108698   -1.604565   -0.000051
     36          6           0        3.191628   -3.021314    0.000010
     37          1           0        3.708478   -3.395937   -0.894751
     38          1           0        3.708037   -3.395955    0.895027
     39          1           0        2.183196   -3.449487   -0.000266
     40          6           0       -3.191618   -3.021317    0.000049
     41          1           0       -3.707965   -3.395941    0.895109
     42          1           0       -3.708528   -3.395958   -0.894669
     43          1           0       -2.183185   -3.449489   -0.000293
     44         27           0        0.000006   -1.217105    0.000070
 ---------------------------------------------------------------------

 SCF Done:  E(UPBE1PBE) =  -1212.10347401     A.U. after   28 cycles

 Alpha  occ. eigenvalues --  -14.45331 -14.45331 -14.44918 -14.44918 -10.28198
 Alpha  occ. eigenvalues --  -10.28198 -10.27430 -10.27430 -10.27351 -10.27350
 Alpha  occ. eigenvalues --  -10.27196 -10.27196 -10.26370 -10.26369 -10.23676
 Alpha  occ. eigenvalues --  -10.23676 -10.23532 -10.23532 -10.23049 -10.23049
 Alpha  occ. eigenvalues --  -10.22956 -10.22956 -10.22270 -10.22129 -10.22123
 Alpha  occ. eigenvalues --  -10.21041  -3.93484  -2.45731  -2.43612  -2.43051
 Alpha  occ. eigenvalues --   -1.05926  -1.05834  -0.97851  -0.97512  -0.88084
 Alpha  occ. eigenvalues --   -0.87720  -0.85243  -0.80755  -0.79003  -0.77713
 Alpha  occ. eigenvalues --   -0.77698  -0.75551  -0.74950  -0.73245  -0.71859
 Alpha  occ. eigenvalues --   -0.67030  -0.65713  -0.64469  -0.64154  -0.62720
 Alpha  occ. eigenvalues --   -0.61542  -0.58751  -0.57554  -0.56727  -0.54054
 Alpha  occ. eigenvalues --   -0.53169  -0.52169  -0.49888  -0.49799  -0.49150
 Alpha  occ. eigenvalues --   -0.49084  -0.48174  -0.47190  -0.46699  -0.45992
 Alpha  occ. eigenvalues --   -0.45659  -0.45355  -0.45190  -0.44861  -0.44462
 Alpha  occ. eigenvalues --   -0.42633  -0.41819  -0.40976  -0.38929  -0.38555
 Alpha  occ. eigenvalues --   -0.38148  -0.38082  -0.37290  -0.37177  -0.36779
 Alpha  occ. eigenvalues --   -0.36455  -0.34922  -0.34457  -0.34109  -0.31907
 Alpha  occ. eigenvalues --   -0.31360  -0.30517  -0.27130  -0.26979  -0.26705
 Alpha  occ. eigenvalues --   -0.26438  -0.25910  -0.24570  -0.23961  -0.22813
 Alpha  occ. eigenvalues --   -0.20532  -0.19949  -0.10699
 Alpha virt. eigenvalues --   -0.06183  -0.03103  -0.00193   0.00073   0.00243
 Alpha virt. eigenvalues --    0.02271   0.02738   0.03907   0.03907   0.05543
 Alpha virt. eigenvalues --    0.06104   0.07882   0.08193   0.09759   0.10242

  Beta  occ. eigenvalues --  -14.45194 -14.45194 -14.44899 -14.44899 -10.27941
  Beta  occ. eigenvalues --  -10.27940 -10.27427 -10.27427 -10.27360 -10.27360
  Beta  occ. eigenvalues --  -10.27233 -10.27233 -10.26245 -10.26245 -10.23617
  Beta  occ. eigenvalues --  -10.23617 -10.23517 -10.23517 -10.23059 -10.23059
  Beta  occ. eigenvalues --  -10.22922 -10.22922 -10.22241 -10.22231 -10.22126
  Beta  occ. eigenvalues --  -10.21565  -3.85982  -2.37130  -2.36903  -2.34194
  Beta  occ. eigenvalues --   -1.05712  -1.05615  -0.97658  -0.97292  -0.88058
  Beta  occ. eigenvalues --   -0.87649  -0.85320  -0.80678  -0.78971  -0.77650
  Beta  occ. eigenvalues --   -0.77647  -0.75398  -0.74729  -0.73255  -0.72041
  Beta  occ. eigenvalues --   -0.67065  -0.65623  -0.64193  -0.64115  -0.62687
  Beta  occ. eigenvalues --   -0.61450  -0.58731  -0.57620  -0.56707  -0.54027
  Beta  occ. eigenvalues --   -0.53149  -0.52137  -0.49401  -0.49326  -0.49095
  Beta  occ. eigenvalues --   -0.49042  -0.48367  -0.47163  -0.46640  -0.45956
  Beta  occ. eigenvalues --   -0.45683  -0.45314  -0.44877  -0.44816  -0.44131
  Beta  occ. eigenvalues --   -0.42648  -0.41786  -0.40983  -0.38636  -0.38592
  Beta  occ. eigenvalues --   -0.38127  -0.37262  -0.37000  -0.36792  -0.36778
  Beta  occ. eigenvalues --   -0.36091  -0.35006  -0.33873  -0.33418  -0.31537
  Beta  occ. eigenvalues --   -0.29890  -0.27605  -0.26545  -0.25777  -0.24937
  Beta  occ. eigenvalues --   -0.23786  -0.23628  -0.21803  -0.20098  -0.19813
  Beta  occ. eigenvalues --   -0.19587
  Beta virt. eigenvalues --   -0.04945  -0.04080  -0.00710  -0.00633  -0.00055
  Beta virt. eigenvalues --    0.01279   0.01649   0.02453   0.03583   0.05487
  Beta virt. eigenvalues --    0.05784   0.05915   0.07823   0.09185   0.09344

 Mulliken charges and spin densities:
               1          2
     1  C   -0.270439  -0.310836
     2  C    0.393406   0.085954
     3  C   -0.211427  -0.069188
     4  C   -0.184683   0.099496
     5  C   -0.211427  -0.069189
     6  C    0.393409   0.085954
     7  H    0.168360  -0.002836
     8  H    0.158631  -0.005191
     9  H    0.168360  -0.002835
    10  C    0.316572   0.002714
    11  C    0.355537   0.212210
    12  C    0.298012  -0.022520
    13  C   -0.196788   0.008792
    14  C   -0.221712   0.043119
    15  C   -0.189811   0.025679
    16  H    0.191935  -0.000675
    17  C   -0.181956  -0.011578
    18  H    0.173326  -0.002213
    19  H    0.171108  -0.001493
    20  H    0.168489   0.000264
    21  C    0.316562   0.002712
    22  C    0.355539   0.212206
    23  C    0.298022  -0.022518
    24  C   -0.196780   0.008794
    25  C   -0.221719   0.043116
    26  C   -0.189810   0.025673
    27  H    0.191934  -0.000675
    28  C   -0.181957  -0.011575
    29  H    0.173326  -0.002213
    30  H    0.171107  -0.001493
    31  H    0.168490   0.000264
    32  N   -0.719035  -0.009127
    33  N   -0.585882   0.039402
    34  N   -0.719039  -0.009126
    35  N   -0.585879   0.039399
    36  C   -0.403747  -0.004764
    37  H    0.201599   0.002388
    38  H    0.201606   0.002392
    39  H    0.216612  -0.000677
    40  C   -0.403747  -0.004765
    41  H    0.201605   0.002392
    42  H    0.201598   0.002388
    43  H    0.216612  -0.000677
    44  Co   0.004080   1.620855
 Sum of Mulliken charges =  -0.00000   2.00000

 Dipole moment (field-independent basis, Debye):
    X=             -0.0000    Y=             -3.6532    Z=             -0.0002  Tot=              3.6532
 Quadrupole moment (field-independent basis, Debye-Ang):
   XX=           -136.3847   YY=           -133.6035   ZZ=           -173.6522
   XY=              0.0000   XZ=             -0.0004   YZ=              0.0003

 Normal termination of Gaussian 16 at Wed Jul 17 20:59:44 2024.
