 Gaussian 16, Revision C.01,
 Gaussian 16:  ES64L-G16RevC.01  3-Jul-2019

 ----------------------------------------------------------------------
 # pbe1pbe em=gd3bj genecp g09default scf=(xqc,maxcycle=64) force guess
 =read nosymm
 ----------------------------------------------------------------------

 ----------
 Title Card
 ----------
 Symbolic Z-matrix:
 Charge =  0 Multiplicity = 1

                          Input orientation:
 ---------------------------------------------------------------------
 Center     Atomic      Atomic             Coordinates (Angstroms)
 Number     Number       Type             X           Y           Z
 ---------------------------------------------------------------------
      1          6           0        0.000005    0.785896    0.000118
      2          6           0       -1.306563    1.351198    0.000037
      3          6           0       -1.266930    2.738138   -0.000011
      4          6           0       -0.000002    3.365301    0.000013
      5          6           0        1.266934    2.738140    0.000039
      6          6           0        1.306564    1.351196    0.000073
      7          1           0       -2.170077    3.338432   -0.000046
      8          1           0        0.000000    4.452569   -0.000011
      9          1           0        2.170076    3.338432    0.000046
     10          6           0        3.685280    0.591081   -0.000024
     11          6           0        1.896980   -0.902526    0.000114
     12          6           0        4.169877   -0.739935   -0.000086
     13          6           0        4.538858    1.665686   -0.000056
     14          6           0        5.530618   -1.001739   -0.000191
     15          6           0        5.925695    1.402191   -0.000171
     16          1           0        4.167403    2.685188    0.000010
     17          6           0        6.404657    0.108641   -0.000242
     18          1           0        5.908010   -2.019503   -0.000242
     19          1           0        6.613035    2.242147   -0.000195
     20          1           0        7.472669   -0.070609   -0.000329
     21          6           0       -3.685266    0.591067   -0.000040
     22          6           0       -1.896979   -0.902524    0.000098
     23          6           0       -4.169887   -0.739939   -0.000068
     24          6           0       -4.538869    1.665692   -0.000055
     25          6           0       -5.530595   -1.001748   -0.000100
     26          6           0       -5.925683    1.402180   -0.000100
     27          1           0       -4.167404    2.685180   -0.000024
     28          6           0       -6.404662    0.108637   -0.000123
     29          1           0       -5.908003   -2.019512   -0.000104
     30          1           0       -6.613036    2.242140   -0.000107
     31          1           0       -7.472662   -0.070620   -0.000153
     32          7           0       -2.297622    0.489972    0.000014
     33          7           0       -3.104968   -1.604585   -0.000047
     34          7           0        2.297622    0.489976    0.000076
     35          7           0        3.104978   -1.604585   -0.000048
     36          6           0        3.191376   -3.020684    0.000010
     37          1           0        3.708273   -3.395301   -0.894600
     38          1           0        3.707832   -3.395320    0.894875
     39          1           0        2.182835   -3.449630   -0.000266
     40          6           0       -3.191367   -3.020689    0.000049
     41          1           0       -3.707760   -3.395306    0.894957
     42          1           0       -3.708322   -3.395323   -0.894518
     43          1           0       -2.182823   -3.449632   -0.000294
     44         27           0        0.000009   -1.215292    0.000063
 ---------------------------------------------------------------------

 SCF Done:  E(UPBE1PBE) =  -1212.10289800     A.U. after   18 cycles

 Alpha  occ. eigenvalues --  -14.45892 -14.45892 -14.45098 -14.45098 -10.28550
 Alpha  occ. eigenvalues --  -10.28549 -10.27669 -10.27669 -10.27533 -10.27533
 Alpha  occ. eigenvalues --  -10.27390 -10.27390 -10.24958 -10.24958 -10.24203
 Alpha  occ. eigenvalues --  -10.24203 -10.23892 -10.23892 -10.23472 -10.23472
 Alpha  occ. eigenvalues --  -10.23410 -10.23410 -10.21196 -10.21192 -10.20951
 Alpha  occ. eigenvalues --  -10.19519  -3.83560  -2.35295  -2.35164  -2.31587
 Alpha  occ. eigenvalues --   -1.05985  -1.05908  -0.97807  -0.97510  -0.88292
 Alpha  occ. eigenvalues --   -0.88063  -0.84521  -0.80663  -0.78896  -0.77995
 Alpha  occ. eigenvalues --   -0.77875  -0.75619  -0.75115  -0.72918  -0.71280
 Alpha  occ. eigenvalues --   -0.66808  -0.65507  -0.64617  -0.64109  -0.62636
 Alpha  occ. eigenvalues --   -0.61582  -0.58784  -0.57218  -0.56763  -0.54205
 Alpha  occ. eigenvalues --   -0.53244  -0.51840  -0.49822  -0.49759  -0.49076
 Alpha  occ. eigenvalues --   -0.48708  -0.47963  -0.47459  -0.46628  -0.46272
 Alpha  occ. eigenvalues --   -0.45689  -0.45445  -0.44988  -0.44898  -0.44332
 Alpha  occ. eigenvalues --   -0.42293  -0.41815  -0.40644  -0.38615  -0.38413
 Alpha  occ. eigenvalues --   -0.38105  -0.37484  -0.37138  -0.36968  -0.36135
 Alpha  occ. eigenvalues --   -0.35719  -0.34406  -0.34340  -0.33975  -0.31330
 Alpha  occ. eigenvalues --   -0.29275  -0.26736  -0.25834  -0.24884  -0.24496
 Alpha  occ. eigenvalues --   -0.22533  -0.21080  -0.20558  -0.20196  -0.16257
 Alpha  occ. eigenvalues --   -0.15661  -0.15375
 Alpha virt. eigenvalues --   -0.05051  -0.02618  -0.00704  -0.00067   0.00666
 Alpha virt. eigenvalues --    0.01293   0.02027   0.03285   0.05331   0.05835
 Alpha virt. eigenvalues --    0.06304   0.07202   0.09344   0.09376   0.10095

  Beta  occ. eigenvalues --  -14.45892 -14.45892 -14.45098 -14.45098 -10.28550
  Beta  occ. eigenvalues --  -10.28549 -10.27669 -10.27669 -10.27533 -10.27533
  Beta  occ. eigenvalues --  -10.27390 -10.27390 -10.24958 -10.24958 -10.24203
  Beta  occ. eigenvalues --  -10.24203 -10.23892 -10.23892 -10.23472 -10.23472
  Beta  occ. eigenvalues --  -10.23410 -10.23410 -10.21196 -10.21192 -10.20951
  Beta  occ. eigenvalues --  -10.19519  -3.83560  -2.35295  -2.35164  -2.31587
  Beta  occ. eigenvalues --   -1.05985  -1.05908  -0.97807  -0.97510  -0.88292
  Beta  occ. eigenvalues --   -0.88063  -0.84521  -0.80663  -0.78896  -0.77995
  Beta  occ. eigenvalues --   -0.77875  -0.75619  -0.75115  -0.72918  -0.71280
  Beta  occ. eigenvalues --   -0.66808  -0.65507  -0.64617  -0.64109  -0.62636
  Beta  occ. eigenvalues --   -0.61582  -0.58784  -0.57218  -0.56763  -0.54205
  Beta  occ. eigenvalues --   -0.53244  -0.51840  -0.49822  -0.49759  -0.49076
  Beta  occ. eigenvalues --   -0.48708  -0.47963  -0.47459  -0.46628  -0.46272
  Beta  occ. eigenvalues --   -0.45689  -0.45445  -0.44988  -0.44898  -0.44332
  Beta  occ. eigenvalues --   -0.42293  -0.41815  -0.40644  -0.38615  -0.38413
  Beta  occ. eigenvalues --   -0.38105  -0.37484  -0.37138  -0.36968  -0.36135
  Beta  occ. eigenvalues --   -0.35719  -0.34406  -0.34340  -0.33975  -0.31330
  Beta  occ. eigenvalues --   -0.29275  -0.26736  -0.25834  -0.24884  -0.24496
  Beta  occ. eigenvalues --   -0.22533  -0.21080  -0.20558  -0.20196  -0.16257
  Beta  occ. eigenvalues --   -0.15661  -0.15375
  Beta virt. eigenvalues --   -0.05051  -0.02618  -0.00704  -0.00067   0.00666
  Beta virt. eigenvalues --    0.01293   0.02027   0.03285   0.05331   0.05835
  Beta virt. eigenvalues --    0.06304   0.07202   0.09344   0.09376   0.10095

 Mulliken charges and spin densities:
               1          2
     1  C   -0.199838  -0.000000
     2  C    0.345752   0.000000
     3  C   -0.210819  -0.000000
     4  C   -0.189432   0.000000
     5  C   -0.210820  -0.000000
     6  C    0.345757   0.000000
     7  H    0.157205  -0.000000
     8  H    0.150009  -0.000000
     9  H    0.157205  -0.000000
    10  C    0.317741   0.000000
    11  C    0.393503  -0.000000
    12  C    0.295489   0.000000
    13  C   -0.193645  -0.000000
    14  C   -0.217399  -0.000000
    15  C   -0.187255  -0.000000
    16  H    0.198161   0.000000
    17  C   -0.182726   0.000000
    18  H    0.176878   0.000000
    19  H    0.174365   0.000000
    20  H    0.171122  -0.000000
    21  C    0.317716   0.000000
    22  C    0.393511  -0.000000
    23  C    0.295511   0.000000
    24  C   -0.193629  -0.000000
    25  C   -0.217415  -0.000000
    26  C   -0.187254  -0.000000
    27  H    0.198160   0.000000
    28  C   -0.182726   0.000000
    29  H    0.176880   0.000000
    30  H    0.174363   0.000000
    31  H    0.171125  -0.000000
    32  N   -0.711552  -0.000000
    33  N   -0.582313  -0.000000
    34  N   -0.711561  -0.000000
    35  N   -0.582307  -0.000000
    36  C   -0.405166  -0.000000
    37  H    0.201971   0.000000
    38  H    0.201980  -0.000000
    39  H    0.224665  -0.000000
    40  C   -0.405164  -0.000000
    41  H    0.201981  -0.000000
    42  H    0.201971   0.000000
    43  H    0.224665  -0.000000
    44  Co  -0.096669   0.000001
 Sum of Mulliken charges =  -0.00000  -0.00000

 Dipole moment (field-independent basis, Debye):
    X=             -0.0001    Y=             -3.9816    Z=             -0.0003  Tot=              3.9816
 Quadrupole moment (field-independent basis, Debye-Ang):
   XX=           -126.3887   YY=           -135.3778   ZZ=           -172.1724
   XY=              0.0003   XZ=             -0.0005   YZ=              0.0006

 Normal termination of Gaussian 16 at Wed Jul 17 21:01:55 2024.
