 Gaussian 16, Revision C.01,
 Gaussian 16:  ES64L-G16RevC.01  3-Jul-2019

 ----------------------------------------------------------------------
 # pbe1pbe em=gd3bj genecp g09default scf=(xqc,maxcycle=64) force guess
 =read nosymm
 ----------------------------------------------------------------------

 ----------
 Title Card
 ----------
 Symbolic Z-matrix:
 Charge =  0 Multiplicity = 3

                          Input orientation:
 ---------------------------------------------------------------------
 Center     Atomic      Atomic             Coordinates (Angstroms)
 Number     Number       Type             X           Y           Z
 ---------------------------------------------------------------------
      1          6           0        0.000005    0.785896    0.000118
      2          6           0       -1.306563    1.351198    0.000037
      3          6           0       -1.266930    2.738138   -0.000011
      4          6           0       -0.000002    3.365301    0.000013
      5          6           0        1.266934    2.738140    0.000039
      6          6           0        1.306564    1.351196    0.000073
      7          1           0       -2.170077    3.338432   -0.000046
      8          1           0        0.000000    4.452569   -0.000011
      9          1           0        2.170076    3.338432    0.000046
     10          6           0        3.685280    0.591081   -0.000024
     11          6           0        1.896980   -0.902526    0.000114
     12          6           0        4.169877   -0.739935   -0.000086
     13          6           0        4.538858    1.665686   -0.000056
     14          6           0        5.530618   -1.001739   -0.000191
     15          6           0        5.925695    1.402191   -0.000171
     16          1           0        4.167403    2.685188    0.000010
     17          6           0        6.404657    0.108641   -0.000242
     18          1           0        5.908010   -2.019503   -0.000242
     19          1           0        6.613035    2.242147   -0.000195
     20          1           0        7.472669   -0.070609   -0.000329
     21          6           0       -3.685266    0.591067   -0.000040
     22          6           0       -1.896979   -0.902524    0.000098
     23          6           0       -4.169887   -0.739939   -0.000068
     24          6           0       -4.538869    1.665692   -0.000055
     25          6           0       -5.530595   -1.001748   -0.000100
     26          6           0       -5.925683    1.402180   -0.000100
     27          1           0       -4.167404    2.685180   -0.000024
     28          6           0       -6.404662    0.108637   -0.000123
     29          1           0       -5.908003   -2.019512   -0.000104
     30          1           0       -6.613036    2.242140   -0.000107
     31          1           0       -7.472662   -0.070620   -0.000153
     32          7           0       -2.297622    0.489972    0.000014
     33          7           0       -3.104968   -1.604585   -0.000047
     34          7           0        2.297622    0.489976    0.000076
     35          7           0        3.104978   -1.604585   -0.000048
     36          6           0        3.191376   -3.020684    0.000010
     37          1           0        3.708273   -3.395301   -0.894600
     38          1           0        3.707832   -3.395320    0.894875
     39          1           0        2.182835   -3.449630   -0.000266
     40          6           0       -3.191367   -3.020689    0.000049
     41          1           0       -3.707760   -3.395306    0.894957
     42          1           0       -3.708322   -3.395323   -0.894518
     43          1           0       -2.182823   -3.449632   -0.000294
     44         27           0        0.000009   -1.215292    0.000063
 ---------------------------------------------------------------------

 SCF Done:  E(UPBE1PBE) =  -1212.10328099     A.U. after   34 cycles

 Alpha  occ. eigenvalues --  -14.45326 -14.45326 -14.44860 -14.44859 -10.28206
 Alpha  occ. eigenvalues --  -10.28206 -10.27440 -10.27440 -10.27344 -10.27344
 Alpha  occ. eigenvalues --  -10.27216 -10.27216 -10.26273 -10.26273 -10.23713
 Alpha  occ. eigenvalues --  -10.23713 -10.23539 -10.23538 -10.23078 -10.23078
 Alpha  occ. eigenvalues --  -10.22978 -10.22978 -10.22276 -10.22067 -10.22063
 Alpha  occ. eigenvalues --  -10.20964  -3.93492  -2.45773  -2.43608  -2.43024
 Alpha  occ. eigenvalues --   -1.05844  -1.05750  -0.97832  -0.97490  -0.88113
 Alpha  occ. eigenvalues --   -0.87772  -0.85131  -0.80739  -0.78969  -0.77722
 Alpha  occ. eigenvalues --   -0.77704  -0.75570  -0.74976  -0.73190  -0.71754
 Alpha  occ. eigenvalues --   -0.66981  -0.65694  -0.64462  -0.64126  -0.62719
 Alpha  occ. eigenvalues --   -0.61522  -0.58740  -0.57550  -0.56737  -0.54040
 Alpha  occ. eigenvalues --   -0.53110  -0.52119  -0.49859  -0.49771  -0.49148
 Alpha  occ. eigenvalues --   -0.49022  -0.48158  -0.47201  -0.46684  -0.46012
 Alpha  occ. eigenvalues --   -0.45663  -0.45392  -0.45170  -0.44894  -0.44441
 Alpha  occ. eigenvalues --   -0.42555  -0.41805  -0.40927  -0.38919  -0.38550
 Alpha  occ. eigenvalues --   -0.38175  -0.38056  -0.37246  -0.37200  -0.36778
 Alpha  occ. eigenvalues --   -0.36512  -0.34856  -0.34455  -0.34109  -0.31833
 Alpha  occ. eigenvalues --   -0.31358  -0.30512  -0.27255  -0.26992  -0.26720
 Alpha  occ. eigenvalues --   -0.26482  -0.25894  -0.24627  -0.23937  -0.22830
 Alpha  occ. eigenvalues --   -0.20491  -0.19816  -0.10736
 Alpha virt. eigenvalues --   -0.06158  -0.03072  -0.00171   0.00094   0.00215
 Alpha virt. eigenvalues --    0.02256   0.02732   0.03890   0.03970   0.05550
 Alpha virt. eigenvalues --    0.06086   0.07927   0.08283   0.09726   0.10200

  Beta  occ. eigenvalues --  -14.45187 -14.45187 -14.44842 -14.44842 -10.27946
  Beta  occ. eigenvalues --  -10.27945 -10.27437 -10.27437 -10.27354 -10.27354
  Beta  occ. eigenvalues --  -10.27252 -10.27252 -10.26147 -10.26147 -10.23654
  Beta  occ. eigenvalues --  -10.23654 -10.23524 -10.23524 -10.23088 -10.23088
  Beta  occ. eigenvalues --  -10.22944 -10.22944 -10.22189 -10.22171 -10.22120
  Beta  occ. eigenvalues --  -10.21473  -3.86060  -2.37220  -2.37002  -2.34242
  Beta  occ. eigenvalues --   -1.05628  -1.05528  -0.97635  -0.97269  -0.88081
  Beta  occ. eigenvalues --   -0.87702  -0.85200  -0.80659  -0.78935  -0.77659
  Beta  occ. eigenvalues --   -0.77652  -0.75413  -0.74754  -0.73203  -0.71926
  Beta  occ. eigenvalues --   -0.67015  -0.65588  -0.64186  -0.64092  -0.62681
  Beta  occ. eigenvalues --   -0.61426  -0.58718  -0.57604  -0.56715  -0.54011
  Beta  occ. eigenvalues --   -0.53089  -0.52084  -0.49369  -0.49295  -0.49035
  Beta  occ. eigenvalues --   -0.49030  -0.48334  -0.47174  -0.46628  -0.45975
  Beta  occ. eigenvalues --   -0.45690  -0.45352  -0.44911  -0.44793  -0.44109
  Beta  occ. eigenvalues --   -0.42566  -0.41771  -0.40935  -0.38619  -0.38581
  Beta  occ. eigenvalues --   -0.38103  -0.37217  -0.37010  -0.36816  -0.36772
  Beta  occ. eigenvalues --   -0.36176  -0.34941  -0.33860  -0.33410  -0.31434
  Beta  occ. eigenvalues --   -0.29879  -0.27718  -0.26552  -0.25749  -0.24993
  Beta  occ. eigenvalues --   -0.23845  -0.23692  -0.21776  -0.19992  -0.19856
  Beta  occ. eigenvalues --   -0.19602
  Beta virt. eigenvalues --   -0.04973  -0.04100  -0.00689  -0.00680  -0.00038
  Beta virt. eigenvalues --    0.01277   0.01619   0.02438   0.03596   0.05516
  Beta virt. eigenvalues --    0.05774   0.05920   0.07821   0.09267   0.09340

 Mulliken charges and spin densities:
               1          2
     1  C   -0.274762  -0.302127
     2  C    0.393492   0.086886
     3  C   -0.211874  -0.070295
     4  C   -0.185446   0.103465
     5  C   -0.211875  -0.070298
     6  C    0.393497   0.086888
     7  H    0.168105  -0.002528
     8  H    0.158303  -0.005418
     9  H    0.168105  -0.002527
    10  C    0.317681   0.002908
    11  C    0.356446   0.213786
    12  C    0.298388  -0.022357
    13  C   -0.197541   0.008294
    14  C   -0.223172   0.042924
    15  C   -0.189424   0.025315
    16  H    0.192263  -0.000642
    17  C   -0.181849  -0.011642
    18  H    0.173673  -0.002200
    19  H    0.171139  -0.001471
    20  H    0.168775   0.000271
    21  C    0.317656   0.002904
    22  C    0.356458   0.213761
    23  C    0.298410  -0.022353
    24  C   -0.197524   0.008298
    25  C   -0.223187   0.042917
    26  C   -0.189423   0.025305
    27  H    0.192263  -0.000642
    28  C   -0.181850  -0.011635
    29  H    0.173675  -0.002200
    30  H    0.171138  -0.001471
    31  H    0.168778   0.000270
    32  N   -0.719065  -0.009796
    33  N   -0.586638   0.040163
    34  N   -0.719074  -0.009795
    35  N   -0.586631   0.040158
    36  C   -0.403545  -0.004862
    37  H    0.201558   0.002459
    38  H    0.201565   0.002463
    39  H    0.216192  -0.000663
    40  C   -0.403544  -0.004862
    41  H    0.201566   0.002463
    42  H    0.201559   0.002458
    43  H    0.216192  -0.000663
    44  Co   0.009547   1.606091
 Sum of Mulliken charges =  -0.00000   2.00000

 Dipole moment (field-independent basis, Debye):
    X=             -0.0003    Y=             -3.6793    Z=             -0.0002  Tot=              3.6793
 Quadrupole moment (field-independent basis, Debye-Ang):
   XX=           -135.8795   YY=           -133.6448   ZZ=           -173.6561
   XY=              0.0002   XZ=             -0.0004   YZ=              0.0003

 Normal termination of Gaussian 16 at Wed Jul 17 21:01:21 2024.
