 Gaussian 16, Revision C.01,
 Gaussian 16:  ES64L-G16RevC.01  3-Jul-2019

 ----------------------------------------------------------------------
 # pbe1pbe em=gd3bj genecp g09default scf=(xqc,maxcycle=64) force guess
 =read nosymm
 ----------------------------------------------------------------------

 ----------
 Title Card
 ----------
 Symbolic Z-matrix:
 Charge =  0 Multiplicity = 1

                          Input orientation:
 ---------------------------------------------------------------------
 Center     Atomic      Atomic             Coordinates (Angstroms)
 Number     Number       Type             X           Y           Z
 ---------------------------------------------------------------------
      1          6           0        0.000006    0.776421    0.000061
      2          6           0       -1.285481    1.353234    0.000040
      3          6           0       -1.252484    2.744924   -0.000003
      4          6           0       -0.000005    3.382071    0.000012
      5          6           0        1.252495    2.744922    0.000046
      6          6           0        1.285474    1.353237    0.000079
      7          1           0       -2.163310    3.332243   -0.000045
      8          1           0        0.000001    4.465791   -0.000010
      9          1           0        2.163310    3.332243    0.000048
     10          6           0        3.682857    0.585133   -0.000021
     11          6           0        1.905183   -0.900982    0.000126
     12          6           0        4.171674   -0.741949   -0.000093
     13          6           0        4.538026    1.665574   -0.000055
     14          6           0        5.532949   -1.002002   -0.000195
     15          6           0        5.919155    1.402995   -0.000171
     16          1           0        4.166031    2.684442    0.000010
     17          6           0        6.402548    0.105299   -0.000242
     18          1           0        5.908940   -2.019329   -0.000245
     19          1           0        6.609322    2.241383   -0.000196
     20          1           0        7.470782   -0.070973   -0.000328
     21          6           0       -3.682835    0.585113   -0.000036
     22          6           0       -1.905177   -0.900986    0.000099
     23          6           0       -4.171690   -0.741958   -0.000068
     24          6           0       -4.538044    1.665586   -0.000053
     25          6           0       -5.532918   -1.002011   -0.000100
     26          6           0       -5.919142    1.402982   -0.000099
     27          1           0       -4.166031    2.684434   -0.000023
     28          6           0       -6.402557    0.105296   -0.000123
     29          1           0       -5.908934   -2.019339   -0.000105
     30          1           0       -6.609325    2.241378   -0.000108
     31          1           0       -7.470773   -0.070983   -0.000153
     32          7           0       -2.298228    0.478667    0.000008
     33          7           0       -3.104075   -1.604045   -0.000055
     34          7           0        2.298231    0.478659    0.000074
     35          7           0        3.104084   -1.604044   -0.000055
     36          6           0        3.189179   -3.022234    0.000008
     37          1           0        3.707971   -3.392697   -0.894116
     38          1           0        3.707534   -3.392709    0.894388
     39          1           0        2.179504   -3.447156   -0.000260
     40          6           0       -3.189172   -3.022239    0.000047
     41          1           0       -3.707462   -3.392697    0.894469
     42          1           0       -3.708021   -3.392718   -0.894034
     43          1           0       -2.179493   -3.447158   -0.000288
     44         27           0        0.000007   -1.209737    0.000105
 ---------------------------------------------------------------------

 SCF Done:  E(UPBE1PBE) =  -1212.11912033     A.U. after   21 cycles

 Alpha  occ. eigenvalues --  -14.45806 -14.45805 -14.45110 -14.45110 -10.28281
 Alpha  occ. eigenvalues --  -10.28280 -10.27616 -10.27616 -10.27440 -10.27439
 Alpha  occ. eigenvalues --  -10.27330 -10.27330 -10.25002 -10.25001 -10.24154
 Alpha  occ. eigenvalues --  -10.24154 -10.23891 -10.23891 -10.23451 -10.23451
 Alpha  occ. eigenvalues --  -10.23394 -10.23394 -10.21296 -10.21293 -10.20957
 Alpha  occ. eigenvalues --  -10.19141  -3.83318  -2.35015  -2.35007  -2.31307
 Alpha  occ. eigenvalues --   -1.06060  -1.05988  -0.97467  -0.97148  -0.88271
 Alpha  occ. eigenvalues --   -0.88023  -0.84812  -0.80510  -0.78878  -0.77984
 Alpha  occ. eigenvalues --   -0.77881  -0.75617  -0.75111  -0.72935  -0.71649
 Alpha  occ. eigenvalues --   -0.66713  -0.65316  -0.64553  -0.64119  -0.62696
 Alpha  occ. eigenvalues --   -0.61525  -0.58876  -0.57259  -0.56718  -0.54165
 Alpha  occ. eigenvalues --   -0.53247  -0.51935  -0.49824  -0.49763  -0.49113
 Alpha  occ. eigenvalues --   -0.48400  -0.47960  -0.47457  -0.46669  -0.46242
 Alpha  occ. eigenvalues --   -0.45776  -0.45354  -0.45064  -0.44770  -0.44218
 Alpha  occ. eigenvalues --   -0.42346  -0.41864  -0.40924  -0.38577  -0.38463
 Alpha  occ. eigenvalues --   -0.38218  -0.37481  -0.36982  -0.36869  -0.36481
 Alpha  occ. eigenvalues --   -0.35441  -0.34589  -0.34399  -0.33910  -0.31505
 Alpha  occ. eigenvalues --   -0.29016  -0.26665  -0.25904  -0.24842  -0.24493
 Alpha  occ. eigenvalues --   -0.22751  -0.21206  -0.20486  -0.20384  -0.16259
 Alpha  occ. eigenvalues --   -0.15478  -0.15097
 Alpha virt. eigenvalues --   -0.04705  -0.02460  -0.00608  -0.00064   0.00789
 Alpha virt. eigenvalues --    0.01338   0.02041   0.03335   0.05409   0.05878
 Alpha virt. eigenvalues --    0.06386   0.07322   0.09198   0.09349   0.10113

  Beta  occ. eigenvalues --  -14.45806 -14.45805 -14.45110 -14.45110 -10.28281
  Beta  occ. eigenvalues --  -10.28280 -10.27616 -10.27616 -10.27440 -10.27439
  Beta  occ. eigenvalues --  -10.27330 -10.27330 -10.25002 -10.25001 -10.24154
  Beta  occ. eigenvalues --  -10.24154 -10.23891 -10.23891 -10.23451 -10.23451
  Beta  occ. eigenvalues --  -10.23394 -10.23394 -10.21296 -10.21293 -10.20957
  Beta  occ. eigenvalues --  -10.19141  -3.83318  -2.35015  -2.35007  -2.31307
  Beta  occ. eigenvalues --   -1.06060  -1.05988  -0.97467  -0.97148  -0.88271
  Beta  occ. eigenvalues --   -0.88023  -0.84812  -0.80510  -0.78878  -0.77984
  Beta  occ. eigenvalues --   -0.77881  -0.75617  -0.75111  -0.72935  -0.71649
  Beta  occ. eigenvalues --   -0.66713  -0.65316  -0.64553  -0.64119  -0.62696
  Beta  occ. eigenvalues --   -0.61525  -0.58876  -0.57259  -0.56718  -0.54165
  Beta  occ. eigenvalues --   -0.53247  -0.51935  -0.49824  -0.49763  -0.49113
  Beta  occ. eigenvalues --   -0.48400  -0.47960  -0.47457  -0.46669  -0.46242
  Beta  occ. eigenvalues --   -0.45776  -0.45354  -0.45064  -0.44770  -0.44218
  Beta  occ. eigenvalues --   -0.42346  -0.41864  -0.40924  -0.38577  -0.38463
  Beta  occ. eigenvalues --   -0.38218  -0.37481  -0.36982  -0.36869  -0.36481
  Beta  occ. eigenvalues --   -0.35441  -0.34589  -0.34399  -0.33910  -0.31505
  Beta  occ. eigenvalues --   -0.29016  -0.26665  -0.25904  -0.24842  -0.24493
  Beta  occ. eigenvalues --   -0.22751  -0.21206  -0.20486  -0.20384  -0.16259
  Beta  occ. eigenvalues --   -0.15478  -0.15098
  Beta virt. eigenvalues --   -0.04705  -0.02460  -0.00608  -0.00064   0.00789
  Beta virt. eigenvalues --    0.01338   0.02041   0.03335   0.05409   0.05878
  Beta virt. eigenvalues --    0.06386   0.07322   0.09198   0.09349   0.10113

 Mulliken charges and spin densities:
               1          2
     1  C   -0.195559   0.000003
     2  C    0.341449  -0.000000
     3  C   -0.207088   0.000000
     4  C   -0.190425  -0.000000
     5  C   -0.207095   0.000000
     6  C    0.341458  -0.000000
     7  H    0.157582   0.000000
     8  H    0.153428   0.000000
     9  H    0.157583   0.000000
    10  C    0.314819  -0.000000
    11  C    0.399319   0.000001
    12  C    0.292596  -0.000000
    13  C   -0.190318   0.000000
    14  C   -0.214335   0.000000
    15  C   -0.188130   0.000000
    16  H    0.197711  -0.000000
    17  C   -0.183774  -0.000000
    18  H    0.176742  -0.000000
    19  H    0.173993  -0.000000
    20  H    0.171053   0.000000
    21  C    0.314777  -0.000000
    22  C    0.399321   0.000001
    23  C    0.292635  -0.000000
    24  C   -0.190295   0.000000
    25  C   -0.214359   0.000000
    26  C   -0.188130   0.000000
    27  H    0.197709  -0.000000
    28  C   -0.183774  -0.000000
    29  H    0.176743  -0.000000
    30  H    0.173990  -0.000000
    31  H    0.171056   0.000000
    32  N   -0.715865   0.000000
    33  N   -0.582876   0.000000
    34  N   -0.715883   0.000000
    35  N   -0.582866   0.000000
    36  C   -0.404180   0.000000
    37  H    0.201936   0.000000
    38  H    0.201945   0.000000
    39  H    0.225094   0.000000
    40  C   -0.404178   0.000000
    41  H    0.201946   0.000000
    42  H    0.201936   0.000000
    43  H    0.225093   0.000000
    44  Co  -0.102781  -0.000006
 Sum of Mulliken charges =  -0.00000   0.00000

 Dipole moment (field-independent basis, Debye):
    X=              0.0000    Y=             -3.8080    Z=             -0.0002  Tot=              3.8080
 Quadrupole moment (field-independent basis, Debye-Ang):
   XX=           -126.5574   YY=           -134.9948   ZZ=           -172.1511
   XY=              0.0004   XZ=             -0.0005   YZ=              0.0002

 Normal termination of Gaussian 16 at Wed Jul 17 21:03:40 2024.
