 Gaussian 16, Revision C.01,
 Gaussian 16:  ES64L-G16RevC.01  3-Jul-2019

 ----------------------------------------------------------------------
 # pbe1pbe em=gd3bj genecp g09default scf=(xqc,maxcycle=64) force guess
 =read nosymm
 ----------------------------------------------------------------------

 ----------
 Title Card
 ----------
 Symbolic Z-matrix:
 Charge =  0 Multiplicity = 3

                          Input orientation:
 ---------------------------------------------------------------------
 Center     Atomic      Atomic             Coordinates (Angstroms)
 Number     Number       Type             X           Y           Z
 ---------------------------------------------------------------------
      1          6           0        0.000006    0.776421    0.000061
      2          6           0       -1.285481    1.353234    0.000040
      3          6           0       -1.252484    2.744924   -0.000003
      4          6           0       -0.000005    3.382071    0.000012
      5          6           0        1.252495    2.744922    0.000046
      6          6           0        1.285474    1.353237    0.000079
      7          1           0       -2.163310    3.332243   -0.000045
      8          1           0        0.000001    4.465791   -0.000010
      9          1           0        2.163310    3.332243    0.000048
     10          6           0        3.682857    0.585133   -0.000021
     11          6           0        1.905183   -0.900982    0.000126
     12          6           0        4.171674   -0.741949   -0.000093
     13          6           0        4.538026    1.665574   -0.000055
     14          6           0        5.532949   -1.002002   -0.000195
     15          6           0        5.919155    1.402995   -0.000171
     16          1           0        4.166031    2.684442    0.000010
     17          6           0        6.402548    0.105299   -0.000242
     18          1           0        5.908940   -2.019329   -0.000245
     19          1           0        6.609322    2.241383   -0.000196
     20          1           0        7.470782   -0.070973   -0.000328
     21          6           0       -3.682835    0.585113   -0.000036
     22          6           0       -1.905177   -0.900986    0.000099
     23          6           0       -4.171690   -0.741958   -0.000068
     24          6           0       -4.538044    1.665586   -0.000053
     25          6           0       -5.532918   -1.002011   -0.000100
     26          6           0       -5.919142    1.402982   -0.000099
     27          1           0       -4.166031    2.684434   -0.000023
     28          6           0       -6.402557    0.105296   -0.000123
     29          1           0       -5.908934   -2.019339   -0.000105
     30          1           0       -6.609325    2.241378   -0.000108
     31          1           0       -7.470773   -0.070983   -0.000153
     32          7           0       -2.298228    0.478667    0.000008
     33          7           0       -3.104075   -1.604045   -0.000055
     34          7           0        2.298231    0.478659    0.000074
     35          7           0        3.104084   -1.604044   -0.000055
     36          6           0        3.189179   -3.022234    0.000008
     37          1           0        3.707971   -3.392697   -0.894116
     38          1           0        3.707534   -3.392709    0.894388
     39          1           0        2.179504   -3.447156   -0.000260
     40          6           0       -3.189172   -3.022239    0.000047
     41          1           0       -3.707462   -3.392697    0.894469
     42          1           0       -3.708021   -3.392718   -0.894034
     43          1           0       -2.179493   -3.447158   -0.000288
     44         27           0        0.000007   -1.209737    0.000105
 ---------------------------------------------------------------------

 SCF Done:  E(UPBE1PBE) =  -1212.11653130     A.U. after   34 cycles

 Alpha  occ. eigenvalues --  -14.45266 -14.45266 -14.44897 -14.44896 -10.27974
 Alpha  occ. eigenvalues --  -10.27974 -10.27388 -10.27387 -10.27315 -10.27314
 Alpha  occ. eigenvalues --  -10.27126 -10.27126 -10.26313 -10.26312 -10.23653
 Alpha  occ. eigenvalues --  -10.23653 -10.23515 -10.23515 -10.23042 -10.23042
 Alpha  occ. eigenvalues --  -10.22952 -10.22952 -10.22238 -10.22154 -10.22142
 Alpha  occ. eigenvalues --  -10.20702  -3.93477  -2.45739  -2.43613  -2.42986
 Alpha  occ. eigenvalues --   -1.05917  -1.05829  -0.97514  -0.97141  -0.88111
 Alpha  occ. eigenvalues --   -0.87725  -0.85429  -0.80613  -0.78959  -0.77711
 Alpha  occ. eigenvalues --   -0.77710  -0.75563  -0.74978  -0.73211  -0.72151
 Alpha  occ. eigenvalues --   -0.66898  -0.65494  -0.64390  -0.64136  -0.62767
 Alpha  occ. eigenvalues --   -0.61471  -0.58849  -0.57647  -0.56664  -0.54002
 Alpha  occ. eigenvalues --   -0.53119  -0.52196  -0.49873  -0.49788  -0.49196
 Alpha  occ. eigenvalues --   -0.48714  -0.48222  -0.47198  -0.46747  -0.45982
 Alpha  occ. eigenvalues --   -0.45723  -0.45335  -0.45052  -0.44886  -0.44325
 Alpha  occ. eigenvalues --   -0.42659  -0.41876  -0.41163  -0.38933  -0.38601
 Alpha  occ. eigenvalues --   -0.38278  -0.37932  -0.37256  -0.37046  -0.37006
 Alpha  occ. eigenvalues --   -0.36451  -0.35000  -0.34528  -0.34042  -0.31936
 Alpha  occ. eigenvalues --   -0.31463  -0.30313  -0.27425  -0.26919  -0.26665
 Alpha  occ. eigenvalues --   -0.26544  -0.25939  -0.24611  -0.23938  -0.22872
 Alpha  occ. eigenvalues --   -0.20636  -0.20262  -0.10368
 Alpha virt. eigenvalues --   -0.06099  -0.02850  -0.00197   0.00096   0.00304
 Alpha virt. eigenvalues --    0.02280   0.02800   0.03916   0.03977   0.05571
 Alpha virt. eigenvalues --    0.06199   0.07878   0.08029   0.09743   0.10224

  Beta  occ. eigenvalues --  -14.45130 -14.45130 -14.44873 -14.44873 -10.27731
  Beta  occ. eigenvalues --  -10.27731 -10.27388 -10.27388 -10.27324 -10.27324
  Beta  occ. eigenvalues --  -10.27162 -10.27162 -10.26188 -10.26188 -10.23595
  Beta  occ. eigenvalues --  -10.23595 -10.23496 -10.23496 -10.23050 -10.23050
  Beta  occ. eigenvalues --  -10.22920 -10.22920 -10.22260 -10.22253 -10.22090
  Beta  occ. eigenvalues --  -10.21175  -3.86171  -2.37475  -2.37053  -2.34265
  Beta  occ. eigenvalues --   -1.05704  -1.05611  -0.97322  -0.96923  -0.88083
  Beta  occ. eigenvalues --   -0.87654  -0.85483  -0.80535  -0.78925  -0.77658
  Beta  occ. eigenvalues --   -0.77643  -0.75412  -0.74766  -0.73220  -0.72309
  Beta  occ. eigenvalues --   -0.66931  -0.65362  -0.64129  -0.64101  -0.62733
  Beta  occ. eigenvalues --   -0.61373  -0.58828  -0.57687  -0.56644  -0.53969
  Beta  occ. eigenvalues --   -0.53095  -0.52156  -0.49393  -0.49322  -0.49116
  Beta  occ. eigenvalues --   -0.48719  -0.48363  -0.47173  -0.46683  -0.45946
  Beta  occ. eigenvalues --   -0.45733  -0.45295  -0.44889  -0.44675  -0.44000
  Beta  occ. eigenvalues --   -0.42678  -0.41846  -0.41169  -0.38627  -0.38621
  Beta  occ. eigenvalues --   -0.38352  -0.37234  -0.37143  -0.36671  -0.36647
  Beta  occ. eigenvalues --   -0.36057  -0.35064  -0.33958  -0.33368  -0.31554
  Beta  occ. eigenvalues --   -0.29689  -0.28064  -0.26483  -0.25839  -0.24986
  Beta  occ. eigenvalues --   -0.23860  -0.23783  -0.21884  -0.20378  -0.19865
  Beta  occ. eigenvalues --   -0.19706
  Beta virt. eigenvalues --   -0.04689  -0.04079  -0.00690  -0.00595  -0.00051
  Beta virt. eigenvalues --    0.01286   0.01661   0.02457   0.03609   0.05503
  Beta virt. eigenvalues --    0.05869   0.05948   0.07905   0.09087   0.09330

 Mulliken charges and spin densities:
               1          2
     1  C   -0.270335  -0.279450
     2  C    0.388226   0.085005
     3  C   -0.208056  -0.067622
     4  C   -0.186670   0.099288
     5  C   -0.208062  -0.067624
     6  C    0.388234   0.084999
     7  H    0.168338  -0.002148
     8  H    0.161354  -0.005051
     9  H    0.168338  -0.002147
    10  C    0.314961   0.000635
    11  C    0.362068   0.203393
    12  C    0.295515  -0.022035
    13  C   -0.194582   0.011547
    14  C   -0.220296   0.042645
    15  C   -0.190254   0.024056
    16  H    0.191783  -0.000815
    17  C   -0.183013  -0.009811
    18  H    0.173400  -0.002208
    19  H    0.170720  -0.001426
    20  H    0.168615   0.000176
    21  C    0.314919   0.000634
    22  C    0.362068   0.203407
    23  C    0.295554  -0.022033
    24  C   -0.194559   0.011549
    25  C   -0.220320   0.042641
    26  C   -0.190254   0.024046
    27  H    0.191782  -0.000815
    28  C   -0.183013  -0.009806
    29  H    0.173401  -0.002207
    30  H    0.170717  -0.001425
    31  H    0.168617   0.000176
    32  N   -0.722948  -0.007037
    33  N   -0.587120   0.039488
    34  N   -0.722966  -0.007031
    35  N   -0.587108   0.039478
    36  C   -0.402623  -0.004729
    37  H    0.201770   0.002341
    38  H    0.201775   0.002343
    39  H    0.216257  -0.000655
    40  C   -0.402621  -0.004730
    41  H    0.201775   0.002344
    42  H    0.201769   0.002341
    43  H    0.216255  -0.000655
    44  Co   0.006588   1.598928
 Sum of Mulliken charges =  -0.00000   2.00000

 Dipole moment (field-independent basis, Debye):
    X=              0.0001    Y=             -3.5672    Z=              0.0004  Tot=              3.5672
 Quadrupole moment (field-independent basis, Debye-Ang):
   XX=           -136.3369   YY=           -133.3072   ZZ=           -173.7028
   XY=              0.0002   XZ=             -0.0004   YZ=             -0.0014

 Normal termination of Gaussian 16 at Wed Jul 17 21:02:55 2024.
