 Gaussian 16, Revision C.01,
 Gaussian 16:  ES64L-G16RevC.01  3-Jul-2019

 ----------------------------------------------------------------------
 # pbe1pbe em=gd3bj genecp g09default scf=(xqc,maxcycle=64) force guess
 =read nosymm
 ----------------------------------------------------------------------

 ----------
 Title Card
 ----------
 Symbolic Z-matrix:
 Charge =  0 Multiplicity = 1

                          Input orientation:
 ---------------------------------------------------------------------
 Center     Atomic      Atomic             Coordinates (Angstroms)
 Number     Number       Type             X           Y           Z
 ---------------------------------------------------------------------
      1          6           0       -0.000001    0.722569    0.000057
      2          6           0       -1.253670    1.338780    0.000035
      3          6           0       -1.232361    2.745382    0.000003
      4          6           0       -0.000000    3.413096    0.000013
      5          6           0        1.232366    2.745381    0.000053
      6          6           0        1.253673    1.338779    0.000086
      7          1           0       -2.151144    3.320063   -0.000044
      8          1           0        0.000001    4.502415   -0.000012
      9          1           0        2.151146    3.320064    0.000051
     10          6           0        3.664136    0.580764   -0.000020
     11          6           0        1.887819   -0.902296    0.000096
     12          6           0        4.155995   -0.742817   -0.000095
     13          6           0        4.516000    1.661343   -0.000055
     14          6           0        5.525598   -1.004977   -0.000204
     15          6           0        5.902231    1.396361   -0.000167
     16          1           0        4.159142    2.684202    0.000014
     17          6           0        6.389629    0.102736   -0.000243
     18          1           0        5.907005   -2.018558   -0.000251
     19          1           0        6.589611    2.235064   -0.000196
     20          1           0        7.462497   -0.071113   -0.000322
     21          6           0       -3.664129    0.580757   -0.000040
     22          6           0       -1.887817   -0.902297    0.000059
     23          6           0       -4.155993   -0.742827   -0.000059
     24          6           0       -4.516004    1.661342   -0.000050
     25          6           0       -5.525588   -1.004982   -0.000101
     26          6           0       -5.902224    1.396350   -0.000095
     27          1           0       -4.159142    2.684196   -0.000022
     28          6           0       -6.389633    0.102727   -0.000123
     29          1           0       -5.906998   -2.018568   -0.000111
     30          1           0       -6.589613    2.235057   -0.000109
     31          1           0       -7.462488   -0.071124   -0.000150
     32          7           0       -2.269214    0.478842    0.000018
     33          7           0       -3.087090   -1.602173   -0.000041
     34          7           0        2.269222    0.478849    0.000085
     35          7           0        3.087100   -1.602179   -0.000038
     36          6           0        3.173647   -3.017128   -0.000002
     37          1           0        3.703492   -3.377229   -0.892649
     38          1           0        3.703075   -3.377226    0.892908
     39          1           0        2.165713   -3.443774   -0.000242
     40          6           0       -3.173641   -3.017137    0.000039
     41          1           0       -3.703003   -3.377218    0.892986
     42          1           0       -3.703542   -3.377245   -0.892570
     43          1           0       -2.165701   -3.443776   -0.000268
     44         27           0        0.000005   -1.196396    0.000114
 ---------------------------------------------------------------------

 SCF Done:  E(UPBE1PBE) =  -1212.12901341     A.U. after   17 cycles

 Alpha  occ. eigenvalues --  -14.45756 -14.45755 -14.44944 -14.44944 -10.28113
 Alpha  occ. eigenvalues --  -10.28112 -10.27610 -10.27609 -10.27518 -10.27518
 Alpha  occ. eigenvalues --  -10.27303 -10.27302 -10.24685 -10.24685 -10.24221
 Alpha  occ. eigenvalues --  -10.24221 -10.23894 -10.23894 -10.23451 -10.23451
 Alpha  occ. eigenvalues --  -10.23362 -10.23362 -10.21135 -10.21126 -10.20988
 Alpha  occ. eigenvalues --  -10.18629  -3.83557  -2.35293  -2.35216  -2.31578
 Alpha  occ. eigenvalues --   -1.06018  -1.05935  -0.97562  -0.97196  -0.88260
 Alpha  occ. eigenvalues --   -0.88009  -0.84577  -0.80484  -0.78913  -0.77906
 Alpha  occ. eigenvalues --   -0.77900  -0.75511  -0.75046  -0.72474  -0.71969
 Alpha  occ. eigenvalues --   -0.66622  -0.65409  -0.64582  -0.64045  -0.62638
 Alpha  occ. eigenvalues --   -0.61383  -0.58896  -0.57193  -0.56686  -0.54116
 Alpha  occ. eigenvalues --   -0.53066  -0.51820  -0.49836  -0.49772  -0.49195
 Alpha  occ. eigenvalues --   -0.48076  -0.47944  -0.47342  -0.46710  -0.46254
 Alpha  occ. eigenvalues --   -0.45780  -0.45308  -0.45146  -0.44716  -0.44099
 Alpha  occ. eigenvalues --   -0.42283  -0.41976  -0.40801  -0.38576  -0.38286
 Alpha  occ. eigenvalues --   -0.38259  -0.37516  -0.36964  -0.36958  -0.36723
 Alpha  occ. eigenvalues --   -0.35731  -0.34378  -0.34333  -0.33813  -0.31308
 Alpha  occ. eigenvalues --   -0.28980  -0.26630  -0.26153  -0.24816  -0.24394
 Alpha  occ. eigenvalues --   -0.24054  -0.20864  -0.20818  -0.20629  -0.16286
 Alpha  occ. eigenvalues --   -0.15659  -0.15340
 Alpha virt. eigenvalues --   -0.04772  -0.02446  -0.00635  -0.00045   0.00798
 Alpha virt. eigenvalues --    0.01356   0.02065   0.03400   0.05567   0.05855
 Alpha virt. eigenvalues --    0.06564   0.07374   0.09343   0.09393   0.10123

  Beta  occ. eigenvalues --  -14.45756 -14.45755 -14.44944 -14.44944 -10.28113
  Beta  occ. eigenvalues --  -10.28112 -10.27610 -10.27609 -10.27518 -10.27518
  Beta  occ. eigenvalues --  -10.27303 -10.27302 -10.24685 -10.24685 -10.24221
  Beta  occ. eigenvalues --  -10.24221 -10.23894 -10.23894 -10.23451 -10.23451
  Beta  occ. eigenvalues --  -10.23362 -10.23362 -10.21135 -10.21126 -10.20988
  Beta  occ. eigenvalues --  -10.18629  -3.83557  -2.35293  -2.35216  -2.31578
  Beta  occ. eigenvalues --   -1.06018  -1.05935  -0.97562  -0.97196  -0.88260
  Beta  occ. eigenvalues --   -0.88009  -0.84577  -0.80484  -0.78913  -0.77906
  Beta  occ. eigenvalues --   -0.77900  -0.75511  -0.75046  -0.72474  -0.71969
  Beta  occ. eigenvalues --   -0.66622  -0.65409  -0.64582  -0.64045  -0.62638
  Beta  occ. eigenvalues --   -0.61383  -0.58896  -0.57193  -0.56686  -0.54116
  Beta  occ. eigenvalues --   -0.53066  -0.51820  -0.49836  -0.49772  -0.49195
  Beta  occ. eigenvalues --   -0.48076  -0.47944  -0.47342  -0.46710  -0.46254
  Beta  occ. eigenvalues --   -0.45780  -0.45308  -0.45146  -0.44716  -0.44099
  Beta  occ. eigenvalues --   -0.42283  -0.41976  -0.40801  -0.38576  -0.38286
  Beta  occ. eigenvalues --   -0.38259  -0.37516  -0.36964  -0.36958  -0.36723
  Beta  occ. eigenvalues --   -0.35731  -0.34378  -0.34333  -0.33813  -0.31308
  Beta  occ. eigenvalues --   -0.28980  -0.26630  -0.26153  -0.24816  -0.24394
  Beta  occ. eigenvalues --   -0.24054  -0.20864  -0.20818  -0.20629  -0.16286
  Beta  occ. eigenvalues --   -0.15659  -0.15340
  Beta virt. eigenvalues --   -0.04772  -0.02446  -0.00635  -0.00045   0.00798
  Beta virt. eigenvalues --    0.01356   0.02065   0.03400   0.05567   0.05855
  Beta virt. eigenvalues --    0.06564   0.07374   0.09343   0.09393   0.10123

 Mulliken charges and spin densities:
               1          2
     1  C   -0.214121  -0.000000
     2  C    0.332752   0.000000
     3  C   -0.207377  -0.000000
     4  C   -0.188999   0.000000
     5  C   -0.207379  -0.000000
     6  C    0.332753   0.000000
     7  H    0.155496  -0.000000
     8  H    0.157900  -0.000000
     9  H    0.155496  -0.000000
    10  C    0.310192   0.000000
    11  C    0.392484  -0.000000
    12  C    0.292536   0.000000
    13  C   -0.193232  -0.000000
    14  C   -0.211890  -0.000000
    15  C   -0.187989  -0.000000
    16  H    0.198565   0.000000
    17  C   -0.182053   0.000000
    18  H    0.177053   0.000000
    19  H    0.173249   0.000000
    20  H    0.171254  -0.000000
    21  C    0.310176   0.000000
    22  C    0.392491  -0.000000
    23  C    0.292548   0.000000
    24  C   -0.193223  -0.000000
    25  C   -0.211896  -0.000000
    26  C   -0.187993  -0.000000
    27  H    0.198565   0.000000
    28  C   -0.182050   0.000000
    29  H    0.177053   0.000000
    30  H    0.173248   0.000000
    31  H    0.171256  -0.000000
    32  N   -0.709121  -0.000000
    33  N   -0.585193  -0.000000
    34  N   -0.709126  -0.000000
    35  N   -0.585186  -0.000000
    36  C   -0.403266  -0.000000
    37  H    0.201283  -0.000000
    38  H    0.201290  -0.000000
    39  H    0.224397  -0.000000
    40  C   -0.403264  -0.000000
    41  H    0.201294  -0.000000
    42  H    0.201284  -0.000000
    43  H    0.224397  -0.000000
    44  Co  -0.055655   0.000000
 Sum of Mulliken charges =  -0.00000  -0.00000

 Dipole moment (field-independent basis, Debye):
    X=             -0.0001    Y=             -3.8427    Z=             -0.0002  Tot=              3.8427
 Quadrupole moment (field-independent basis, Debye-Ang):
   XX=           -126.5760   YY=           -135.0032   ZZ=           -172.1121
   XY=              0.0003   XZ=             -0.0005   YZ=              0.0001

 Normal termination of Gaussian 16 at Wed Jul 17 20:37:06 2024.
