 Gaussian 16, Revision C.01,
 Gaussian 16:  ES64L-G16RevC.01  3-Jul-2019

 ----------------------------------------------------------------------
 # pbe1pbe em=gd3bj genecp g09default scf=(xqc,maxcycle=64) force guess
 =read nosymm
 ----------------------------------------------------------------------

 ----------
 Title Card
 ----------
 Symbolic Z-matrix:
 Charge =  0 Multiplicity = 3

                          Input orientation:
 ---------------------------------------------------------------------
 Center     Atomic      Atomic             Coordinates (Angstroms)
 Number     Number       Type             X           Y           Z
 ---------------------------------------------------------------------
      1          6           0       -0.000001    0.722569    0.000057
      2          6           0       -1.253670    1.338780    0.000035
      3          6           0       -1.232361    2.745382    0.000003
      4          6           0       -0.000000    3.413096    0.000013
      5          6           0        1.232366    2.745381    0.000053
      6          6           0        1.253673    1.338779    0.000086
      7          1           0       -2.151144    3.320063   -0.000044
      8          1           0        0.000001    4.502415   -0.000012
      9          1           0        2.151146    3.320064    0.000051
     10          6           0        3.664136    0.580764   -0.000020
     11          6           0        1.887819   -0.902296    0.000096
     12          6           0        4.155995   -0.742817   -0.000095
     13          6           0        4.516000    1.661343   -0.000055
     14          6           0        5.525598   -1.004977   -0.000204
     15          6           0        5.902231    1.396361   -0.000167
     16          1           0        4.159142    2.684202    0.000014
     17          6           0        6.389629    0.102736   -0.000243
     18          1           0        5.907005   -2.018558   -0.000251
     19          1           0        6.589611    2.235064   -0.000196
     20          1           0        7.462497   -0.071113   -0.000322
     21          6           0       -3.664129    0.580757   -0.000040
     22          6           0       -1.887817   -0.902297    0.000059
     23          6           0       -4.155993   -0.742827   -0.000059
     24          6           0       -4.516004    1.661342   -0.000050
     25          6           0       -5.525588   -1.004982   -0.000101
     26          6           0       -5.902224    1.396350   -0.000095
     27          1           0       -4.159142    2.684196   -0.000022
     28          6           0       -6.389633    0.102727   -0.000123
     29          1           0       -5.906998   -2.018568   -0.000111
     30          1           0       -6.589613    2.235057   -0.000109
     31          1           0       -7.462488   -0.071124   -0.000150
     32          7           0       -2.269214    0.478842    0.000018
     33          7           0       -3.087090   -1.602173   -0.000041
     34          7           0        2.269222    0.478849    0.000085
     35          7           0        3.087100   -1.602179   -0.000038
     36          6           0        3.173647   -3.017128   -0.000002
     37          1           0        3.703492   -3.377229   -0.892649
     38          1           0        3.703075   -3.377226    0.892908
     39          1           0        2.165713   -3.443774   -0.000242
     40          6           0       -3.173641   -3.017137    0.000039
     41          1           0       -3.703003   -3.377218    0.892986
     42          1           0       -3.703542   -3.377245   -0.892570
     43          1           0       -2.165701   -3.443776   -0.000268
     44         27           0        0.000005   -1.196396    0.000114
 ---------------------------------------------------------------------

 SCF Done:  E(UPBE1PBE) =  -1212.12279112     A.U. after   36 cycles

 Alpha  occ. eigenvalues --  -14.45244 -14.45244 -14.44707 -14.44706 -10.27860
 Alpha  occ. eigenvalues --  -10.27860 -10.27383 -10.27382 -10.27306 -10.27305
 Alpha  occ. eigenvalues --  -10.27213 -10.27212 -10.26030 -10.26030 -10.23724
 Alpha  occ. eigenvalues --  -10.23724 -10.23517 -10.23517 -10.23051 -10.23051
 Alpha  occ. eigenvalues --  -10.22912 -10.22912 -10.22313 -10.21994 -10.21990
 Alpha  occ. eigenvalues --  -10.20080  -3.93633  -2.46190  -2.43681  -2.42880
 Alpha  occ. eigenvalues --   -1.05896  -1.05793  -0.97639  -0.97213  -0.88093
 Alpha  occ. eigenvalues --   -0.87715  -0.85201  -0.80555  -0.79082  -0.77706
 Alpha  occ. eigenvalues --   -0.77629  -0.75452  -0.74933  -0.72792  -0.72484
 Alpha  occ. eigenvalues --   -0.66840  -0.65607  -0.64427  -0.64048  -0.62755
 Alpha  occ. eigenvalues --   -0.61353  -0.58853  -0.57558  -0.56678  -0.53965
 Alpha  occ. eigenvalues --   -0.52958  -0.52063  -0.49905  -0.49814  -0.49318
 Alpha  occ. eigenvalues --   -0.48351  -0.48265  -0.47136  -0.46778  -0.46012
 Alpha  occ. eigenvalues --   -0.45756  -0.45341  -0.45036  -0.44954  -0.44225
 Alpha  occ. eigenvalues --   -0.42524  -0.42014  -0.41123  -0.38937  -0.38605
 Alpha  occ. eigenvalues --   -0.38414  -0.38137  -0.37266  -0.37113  -0.37034
 Alpha  occ. eigenvalues --   -0.36506  -0.34835  -0.34480  -0.33969  -0.31970
 Alpha  occ. eigenvalues --   -0.31598  -0.30299  -0.28575  -0.27054  -0.26912
 Alpha  occ. eigenvalues --   -0.26550  -0.26138  -0.24520  -0.23872  -0.22711
 Alpha  occ. eigenvalues --   -0.20372  -0.20316  -0.10484
 Alpha virt. eigenvalues --   -0.05984  -0.02803  -0.00172   0.00185   0.00322
 Alpha virt. eigenvalues --    0.02307   0.02802   0.04041   0.04312   0.05557
 Alpha virt. eigenvalues --    0.06254   0.08047   0.08138   0.09815   0.10242

  Beta  occ. eigenvalues --  -14.45105 -14.45105 -14.44680 -14.44679 -10.27608
  Beta  occ. eigenvalues --  -10.27608 -10.27382 -10.27382 -10.27315 -10.27315
  Beta  occ. eigenvalues --  -10.27248 -10.27248 -10.25898 -10.25897 -10.23665
  Beta  occ. eigenvalues --  -10.23665 -10.23500 -10.23500 -10.23061 -10.23061
  Beta  occ. eigenvalues --  -10.22876 -10.22876 -10.22186 -10.22096 -10.22083
  Beta  occ. eigenvalues --  -10.20449  -3.86752  -2.38168  -2.37763  -2.34647
  Beta  occ. eigenvalues --   -1.05670  -1.05565  -0.97431  -0.96986  -0.88047
  Beta  occ. eigenvalues --   -0.87642  -0.85211  -0.80467  -0.79041  -0.77650
  Beta  occ. eigenvalues --   -0.77560  -0.75277  -0.74712  -0.72801  -0.72580
  Beta  occ. eigenvalues --   -0.66877  -0.65409  -0.64166  -0.63998  -0.62702
  Beta  occ. eigenvalues --   -0.61247  -0.58820  -0.57549  -0.56645  -0.53922
  Beta  occ. eigenvalues --   -0.52927  -0.52000  -0.49413  -0.49341  -0.49224
  Beta  occ. eigenvalues --   -0.48348  -0.48335  -0.47111  -0.46687  -0.45972
  Beta  occ. eigenvalues --   -0.45756  -0.45293  -0.44943  -0.44617  -0.43879
  Beta  occ. eigenvalues --   -0.42526  -0.41981  -0.41126  -0.38701  -0.38582
  Beta  occ. eigenvalues --   -0.38421  -0.37235  -0.37167  -0.36853  -0.36619
  Beta  occ. eigenvalues --   -0.36272  -0.34879  -0.33897  -0.33285  -0.31376
  Beta  occ. eigenvalues --   -0.29635  -0.29009  -0.26421  -0.26092  -0.25059
  Beta  occ. eigenvalues --   -0.24291  -0.23761  -0.21661  -0.20542  -0.20272
  Beta  occ. eigenvalues --   -0.19627
  Beta virt. eigenvalues --   -0.04862  -0.04232  -0.01044  -0.00632  -0.00018
  Beta virt. eigenvalues --    0.01239   0.01595   0.02468   0.03658   0.05599
  Beta virt. eigenvalues --    0.05927   0.06069   0.07912   0.09235   0.09356

 Mulliken charges and spin densities:
               1          2
     1  C   -0.296067  -0.217623
     2  C    0.380186   0.089123
     3  C   -0.208446  -0.071758
     4  C   -0.183573   0.103056
     5  C   -0.208448  -0.071760
     6  C    0.380187   0.089124
     7  H    0.165821  -0.000423
     8  H    0.166060  -0.005127
     9  H    0.165821  -0.000423
    10  C    0.310541   0.001518
    11  C    0.356903   0.207766
    12  C    0.295433  -0.022332
    13  C   -0.197602   0.010471
    14  C   -0.217855   0.043576
    15  C   -0.190114   0.025488
    16  H    0.192730  -0.000750
    17  C   -0.181266  -0.010509
    18  H    0.173706  -0.002247
    19  H    0.169967  -0.001503
    20  H    0.168811   0.000214
    21  C    0.310525   0.001518
    22  C    0.356913   0.207747
    23  C    0.295445  -0.022331
    24  C   -0.197593   0.010471
    25  C   -0.217862   0.043575
    26  C   -0.190117   0.025486
    27  H    0.192730  -0.000750
    28  C   -0.181263  -0.010508
    29  H    0.173705  -0.002247
    30  H    0.169967  -0.001503
    31  H    0.168813   0.000214
    32  N   -0.717079  -0.005818
    33  N   -0.589657   0.040074
    34  N   -0.717084  -0.005818
    35  N   -0.589650   0.040074
    36  C   -0.401702  -0.004706
    37  H    0.201366   0.002347
    38  H    0.201370   0.002349
    39  H    0.215365  -0.000578
    40  C   -0.401701  -0.004706
    41  H    0.201373   0.002349
    42  H    0.201368   0.002347
    43  H    0.215365  -0.000578
    44  Co   0.056609   1.515108
 Sum of Mulliken charges =  -0.00000   2.00000

 Dipole moment (field-independent basis, Debye):
    X=             -0.0002    Y=             -3.5954    Z=              0.0002  Tot=              3.5954
 Quadrupole moment (field-independent basis, Debye-Ang):
   XX=           -136.2164   YY=           -133.1449   ZZ=           -173.6890
   XY=              0.0003   XZ=             -0.0004   YZ=             -0.0009

 Normal termination of Gaussian 16 at Wed Jul 17 20:36:33 2024.
