 Gaussian 16, Revision C.01,
 Gaussian 16:  ES64L-G16RevC.01  3-Jul-2019

 ----------------------------------------------------------------------
 # pbe1pbe em=gd3bj genecp g09default scf=(xqc,maxcycle=64) force guess
 =read nosymm
 ----------------------------------------------------------------------

 ----------
 Title Card
 ----------
 Symbolic Z-matrix:
 Charge =  0 Multiplicity = 1

                          Input orientation:
 ---------------------------------------------------------------------
 Center     Atomic      Atomic             Coordinates (Angstroms)
 Number     Number       Type             X           Y           Z
 ---------------------------------------------------------------------
      1          6           0        0.000001    0.722918    0.000099
      2          6           0       -1.250988    1.354364    0.000031
      3          6           0       -1.240869    2.747519   -0.000003
      4          6           0        0.000002    3.403622    0.000013
      5          6           0        1.240872    2.747519    0.000047
      6          6           0        1.250992    1.354362    0.000073
      7          1           0       -2.155081    3.326399   -0.000045
      8          1           0        0.000001    4.490188   -0.000011
      9          1           0        2.155084    3.326400    0.000049
     10          6           0        3.669670    0.580407   -0.000023
     11          6           0        1.897255   -0.900171    0.000102
     12          6           0        4.167728   -0.741338   -0.000098
     13          6           0        4.529063    1.664209   -0.000053
     14          6           0        5.532064   -1.002059   -0.000201
     15          6           0        5.908557    1.401180   -0.000169
     16          1           0        4.163284    2.683882    0.000012
     17          6           0        6.396469    0.101303   -0.000242
     18          1           0        5.909676   -2.019379   -0.000248
     19          1           0        6.599930    2.238042   -0.000196
     20          1           0        7.468044   -0.071189   -0.000325
     21          6           0       -3.669670    0.580406   -0.000036
     22          6           0       -1.897248   -0.900174    0.000058
     23          6           0       -4.167718   -0.741345   -0.000065
     24          6           0       -4.529060    1.664200   -0.000051
     25          6           0       -5.532060   -1.002068   -0.000102
     26          6           0       -5.908557    1.401172   -0.000097
     27          1           0       -4.163284    2.683878   -0.000022
     28          6           0       -6.396464    0.101294   -0.000122
     29          1           0       -5.909669   -2.019387   -0.000108
     30          1           0       -6.599931    2.238033   -0.000109
     31          1           0       -7.468039   -0.071200   -0.000151
     32          7           0       -2.287260    0.464640    0.000015
     33          7           0       -3.091081   -1.597405   -0.000040
     34          7           0        2.287264    0.464642    0.000088
     35          7           0        3.091083   -1.597399   -0.000043
     36          6           0        3.181864   -3.023083    0.000006
     37          1           0        3.706472   -3.384884   -0.892916
     38          1           0        3.706041   -3.384887    0.893181
     39          1           0        2.172756   -3.443744   -0.000252
     40          6           0       -3.181855   -3.023086    0.000044
     41          1           0       -3.705970   -3.384878    0.893261
     42          1           0       -3.706522   -3.384904   -0.892836
     43          1           0       -2.172746   -3.443745   -0.000280
     44         27           0        0.000008   -1.190178    0.000105
 ---------------------------------------------------------------------

 SCF Done:  E(UPBE1PBE) =  -1212.14066881     A.U. after   16 cycles

 Alpha  occ. eigenvalues --  -14.45682 -14.45682 -14.44947 -14.44946 -10.27951
 Alpha  occ. eigenvalues --  -10.27950 -10.27509 -10.27509 -10.27356 -10.27355
 Alpha  occ. eigenvalues --  -10.27269 -10.27269 -10.24881 -10.24881 -10.24149
 Alpha  occ. eigenvalues --  -10.24149 -10.23885 -10.23885 -10.23423 -10.23423
 Alpha  occ. eigenvalues --  -10.23367 -10.23367 -10.21350 -10.21345 -10.21111
 Alpha  occ. eigenvalues --  -10.18731  -3.83363  -2.35192  -2.34987  -2.31328
 Alpha  occ. eigenvalues --   -1.06038  -1.05965  -0.96952  -0.96591  -0.88178
 Alpha  occ. eigenvalues --   -0.87926  -0.84870  -0.80206  -0.78724  -0.77866
 Alpha  occ. eigenvalues --   -0.77842  -0.75622  -0.75068  -0.72776  -0.71968
 Alpha  occ. eigenvalues --   -0.66549  -0.65140  -0.64524  -0.63936  -0.62704
 Alpha  occ. eigenvalues --   -0.61362  -0.58847  -0.57324  -0.56507  -0.54053
 Alpha  occ. eigenvalues --   -0.53153  -0.51832  -0.49719  -0.49659  -0.49019
 Alpha  occ. eigenvalues --   -0.47945  -0.47704  -0.47406  -0.46727  -0.46112
 Alpha  occ. eigenvalues --   -0.45841  -0.45166  -0.45039  -0.44577  -0.44035
 Alpha  occ. eigenvalues --   -0.42260  -0.41960  -0.41109  -0.38468  -0.38431
 Alpha  occ. eigenvalues --   -0.38320  -0.37474  -0.36900  -0.36781  -0.36700
 Alpha  occ. eigenvalues --   -0.35608  -0.34553  -0.34422  -0.33762  -0.31493
 Alpha  occ. eigenvalues --   -0.28938  -0.26567  -0.26010  -0.24825  -0.24457
 Alpha  occ. eigenvalues --   -0.24299  -0.21293  -0.20943  -0.20502  -0.16208
 Alpha  occ. eigenvalues --   -0.15553  -0.15104
 Alpha virt. eigenvalues --   -0.04477  -0.02343  -0.00526   0.00068   0.00902
 Alpha virt. eigenvalues --    0.01387   0.02077   0.03471   0.05409   0.05913
 Alpha virt. eigenvalues --    0.06585   0.07437   0.09207   0.09361   0.10145

  Beta  occ. eigenvalues --  -14.45682 -14.45682 -14.44947 -14.44946 -10.27951
  Beta  occ. eigenvalues --  -10.27950 -10.27509 -10.27509 -10.27356 -10.27355
  Beta  occ. eigenvalues --  -10.27269 -10.27269 -10.24881 -10.24881 -10.24149
  Beta  occ. eigenvalues --  -10.24149 -10.23885 -10.23885 -10.23423 -10.23423
  Beta  occ. eigenvalues --  -10.23367 -10.23367 -10.21350 -10.21345 -10.21111
  Beta  occ. eigenvalues --  -10.18731  -3.83363  -2.35193  -2.34986  -2.31329
  Beta  occ. eigenvalues --   -1.06038  -1.05965  -0.96952  -0.96591  -0.88178
  Beta  occ. eigenvalues --   -0.87926  -0.84870  -0.80206  -0.78724  -0.77866
  Beta  occ. eigenvalues --   -0.77842  -0.75622  -0.75068  -0.72776  -0.71968
  Beta  occ. eigenvalues --   -0.66549  -0.65140  -0.64524  -0.63936  -0.62704
  Beta  occ. eigenvalues --   -0.61362  -0.58847  -0.57324  -0.56507  -0.54053
  Beta  occ. eigenvalues --   -0.53153  -0.51832  -0.49719  -0.49659  -0.49019
  Beta  occ. eigenvalues --   -0.47945  -0.47704  -0.47406  -0.46727  -0.46112
  Beta  occ. eigenvalues --   -0.45841  -0.45166  -0.45039  -0.44577  -0.44035
  Beta  occ. eigenvalues --   -0.42260  -0.41960  -0.41109  -0.38468  -0.38431
  Beta  occ. eigenvalues --   -0.38320  -0.37474  -0.36900  -0.36781  -0.36700
  Beta  occ. eigenvalues --   -0.35608  -0.34553  -0.34422  -0.33762  -0.31493
  Beta  occ. eigenvalues --   -0.28938  -0.26567  -0.26010  -0.24825  -0.24457
  Beta  occ. eigenvalues --   -0.24299  -0.21293  -0.20943  -0.20502  -0.16208
  Beta  occ. eigenvalues --   -0.15553  -0.15104
  Beta virt. eigenvalues --   -0.04477  -0.02343  -0.00526   0.00068   0.00902
  Beta virt. eigenvalues --    0.01387   0.02077   0.03471   0.05409   0.05913
  Beta virt. eigenvalues --    0.06585   0.07437   0.09207   0.09361   0.10145

 Mulliken charges and spin densities:
               1          2
     1  C   -0.200916   0.000014
     2  C    0.320260  -0.000001
     3  C   -0.197279   0.000002
     4  C   -0.199600  -0.000001
     5  C   -0.197278   0.000002
     6  C    0.320259  -0.000001
     7  H    0.160057   0.000000
     8  H    0.156395   0.000000
     9  H    0.160057   0.000000
    10  C    0.313834  -0.000000
    11  C    0.402869   0.000006
    12  C    0.288640  -0.000000
    13  C   -0.189812   0.000001
    14  C   -0.209700   0.000001
    15  C   -0.187507   0.000000
    16  H    0.196483  -0.000000
    17  C   -0.185073   0.000000
    18  H    0.176686  -0.000000
    19  H    0.173455  -0.000000
    20  H    0.171026   0.000000
    21  C    0.313841  -0.000000
    22  C    0.402869   0.000006
    23  C    0.288637  -0.000000
    24  C   -0.189815   0.000001
    25  C   -0.209698   0.000001
    26  C   -0.187508   0.000000
    27  H    0.196484  -0.000000
    28  C   -0.185072   0.000000
    29  H    0.176686  -0.000000
    30  H    0.173455  -0.000000
    31  H    0.171026   0.000000
    32  N   -0.715583   0.000001
    33  N   -0.590907   0.000000
    34  N   -0.715579   0.000001
    35  N   -0.590910   0.000000
    36  C   -0.401489   0.000000
    37  H    0.202015   0.000000
    38  H    0.202025   0.000000
    39  H    0.224339   0.000000
    40  C   -0.401490   0.000000
    41  H    0.202025   0.000000
    42  H    0.202014   0.000000
    43  H    0.224339   0.000000
    44  Co  -0.064561  -0.000029
 Sum of Mulliken charges =  -0.00000  -0.00000

 Dipole moment (field-independent basis, Debye):
    X=              0.0000    Y=             -3.6940    Z=             -0.0002  Tot=              3.6940
 Quadrupole moment (field-independent basis, Debye-Ang):
   XX=           -126.9460   YY=           -134.4980   ZZ=           -172.1385
   XY=             -0.0001   XZ=             -0.0005   YZ=              0.0002

 Normal termination of Gaussian 16 at Wed Jul 17 21:05:18 2024.
