 Gaussian 16, Revision C.01,
 Gaussian 16:  ES64L-G16RevC.01  3-Jul-2019

 ----------------------------------------------------------------------
 # pbe1pbe em=gd3bj genecp g09default scf=(xqc,maxcycle=64) force guess
 =read nosymm
 ----------------------------------------------------------------------

 ----------
 Title Card
 ----------
 Symbolic Z-matrix:
 Charge =  0 Multiplicity = 3

                          Input orientation:
 ---------------------------------------------------------------------
 Center     Atomic      Atomic             Coordinates (Angstroms)
 Number     Number       Type             X           Y           Z
 ---------------------------------------------------------------------
      1          6           0        0.000001    0.722918    0.000099
      2          6           0       -1.250988    1.354364    0.000031
      3          6           0       -1.240869    2.747519   -0.000003
      4          6           0        0.000002    3.403622    0.000013
      5          6           0        1.240872    2.747519    0.000047
      6          6           0        1.250992    1.354362    0.000073
      7          1           0       -2.155081    3.326399   -0.000045
      8          1           0        0.000001    4.490188   -0.000011
      9          1           0        2.155084    3.326400    0.000049
     10          6           0        3.669670    0.580407   -0.000023
     11          6           0        1.897255   -0.900171    0.000102
     12          6           0        4.167728   -0.741338   -0.000098
     13          6           0        4.529063    1.664209   -0.000053
     14          6           0        5.532064   -1.002059   -0.000201
     15          6           0        5.908557    1.401180   -0.000169
     16          1           0        4.163284    2.683882    0.000012
     17          6           0        6.396469    0.101303   -0.000242
     18          1           0        5.909676   -2.019379   -0.000248
     19          1           0        6.599930    2.238042   -0.000196
     20          1           0        7.468044   -0.071189   -0.000325
     21          6           0       -3.669670    0.580406   -0.000036
     22          6           0       -1.897248   -0.900174    0.000058
     23          6           0       -4.167718   -0.741345   -0.000065
     24          6           0       -4.529060    1.664200   -0.000051
     25          6           0       -5.532060   -1.002068   -0.000102
     26          6           0       -5.908557    1.401172   -0.000097
     27          1           0       -4.163284    2.683878   -0.000022
     28          6           0       -6.396464    0.101294   -0.000122
     29          1           0       -5.909669   -2.019387   -0.000108
     30          1           0       -6.599931    2.238033   -0.000109
     31          1           0       -7.468039   -0.071200   -0.000151
     32          7           0       -2.287260    0.464640    0.000015
     33          7           0       -3.091081   -1.597405   -0.000040
     34          7           0        2.287264    0.464642    0.000088
     35          7           0        3.091083   -1.597399   -0.000043
     36          6           0        3.181864   -3.023083    0.000006
     37          1           0        3.706472   -3.384884   -0.892916
     38          1           0        3.706041   -3.384887    0.893181
     39          1           0        2.172756   -3.443744   -0.000252
     40          6           0       -3.181855   -3.023086    0.000044
     41          1           0       -3.705970   -3.384878    0.893261
     42          1           0       -3.706522   -3.384904   -0.892836
     43          1           0       -2.172746   -3.443745   -0.000280
     44         27           0        0.000008   -1.190178    0.000105
 ---------------------------------------------------------------------

 SCF Done:  E(UPBE1PBE) =  -1212.13202011     A.U. after   38 cycles

 Alpha  occ. eigenvalues --  -14.45198 -14.45197 -14.44762 -14.44761 -10.27738
 Alpha  occ. eigenvalues --  -10.27738 -10.27297 -10.27296 -10.27290 -10.27290
 Alpha  occ. eigenvalues --  -10.27059 -10.27059 -10.26212 -10.26212 -10.23646
 Alpha  occ. eigenvalues --  -10.23646 -10.23491 -10.23491 -10.23008 -10.23008
 Alpha  occ. eigenvalues --  -10.22917 -10.22917 -10.22403 -10.22172 -10.22168
 Alpha  occ. eigenvalues --  -10.20216  -3.93667  -2.46166  -2.43724  -2.42953
 Alpha  occ. eigenvalues --   -1.05921  -1.05830  -0.97038  -0.96611  -0.88029
 Alpha  occ. eigenvalues --   -0.87626  -0.85503  -0.80338  -0.78870  -0.77657
 Alpha  occ. eigenvalues --   -0.77591  -0.75585  -0.74971  -0.73074  -0.72490
 Alpha  occ. eigenvalues --   -0.66746  -0.65307  -0.64369  -0.63977  -0.62804
 Alpha  occ. eigenvalues --   -0.61329  -0.58823  -0.57771  -0.56448  -0.53896
 Alpha  occ. eigenvalues --   -0.53049  -0.52087  -0.49799  -0.49715  -0.49184
 Alpha  occ. eigenvalues --   -0.48270  -0.47932  -0.47195  -0.46828  -0.45890
 Alpha  occ. eigenvalues --   -0.45728  -0.45235  -0.44880  -0.44818  -0.44155
 Alpha  occ. eigenvalues --   -0.42560  -0.42007  -0.41374  -0.38897  -0.38610
 Alpha  occ. eigenvalues --   -0.38575  -0.38059  -0.37267  -0.37234  -0.36853
 Alpha  occ. eigenvalues --   -0.36347  -0.34940  -0.34583  -0.33924  -0.32028
 Alpha  occ. eigenvalues --   -0.31747  -0.30289  -0.28817  -0.27002  -0.26987
 Alpha  occ. eigenvalues --   -0.26590  -0.25987  -0.24568  -0.23935  -0.22877
 Alpha  occ. eigenvalues --   -0.20723  -0.20523  -0.10150
 Alpha virt. eigenvalues --   -0.05972  -0.02556  -0.00111   0.00171   0.00337
 Alpha virt. eigenvalues --    0.02328   0.02896   0.03859   0.04241   0.05592
 Alpha virt. eigenvalues --    0.06311   0.07942   0.07948   0.09813   0.10263

  Beta  occ. eigenvalues --  -14.45060 -14.45060 -14.44733 -14.44733 -10.27508
  Beta  occ. eigenvalues --  -10.27507 -10.27306 -10.27305 -10.27293 -10.27293
  Beta  occ. eigenvalues --  -10.27095 -10.27095 -10.26075 -10.26075 -10.23587
  Beta  occ. eigenvalues --  -10.23587 -10.23468 -10.23468 -10.23013 -10.23013
  Beta  occ. eigenvalues --  -10.22885 -10.22885 -10.22296 -10.22272 -10.22225
  Beta  occ. eigenvalues --  -10.20582  -3.86823  -2.38362  -2.37755  -2.34665
  Beta  occ. eigenvalues --   -1.05706  -1.05613  -0.96834  -0.96389  -0.87983
  Beta  occ. eigenvalues --   -0.87551  -0.85499  -0.80248  -0.78824  -0.77597
  Beta  occ. eigenvalues --   -0.77518  -0.75429  -0.74765  -0.73075  -0.72570
  Beta  occ. eigenvalues --   -0.66772  -0.65078  -0.64120  -0.63967  -0.62747
  Beta  occ. eigenvalues --   -0.61227  -0.58790  -0.57750  -0.56417  -0.53849
  Beta  occ. eigenvalues --   -0.53016  -0.52026  -0.49324  -0.49257  -0.49159
  Beta  occ. eigenvalues --   -0.48292  -0.47913  -0.47169  -0.46747  -0.45851
  Beta  occ. eigenvalues --   -0.45719  -0.45189  -0.44805  -0.44485  -0.43833
  Beta  occ. eigenvalues --   -0.42571  -0.41978  -0.41373  -0.38674  -0.38579
  Beta  occ. eigenvalues --   -0.38516  -0.37330  -0.37247  -0.36645  -0.36428
  Beta  occ. eigenvalues --   -0.36215  -0.34966  -0.34017  -0.33258  -0.31485
  Beta  occ. eigenvalues --   -0.29665  -0.29394  -0.26386  -0.25936  -0.25109
  Beta  occ. eigenvalues --   -0.24369  -0.23848  -0.21972  -0.20665  -0.20298
  Beta  occ. eigenvalues --   -0.19873
  Beta virt. eigenvalues --   -0.04654  -0.04216  -0.01099  -0.00486   0.00052
  Beta virt. eigenvalues --    0.01250   0.01682   0.02483   0.03691   0.05561
  Beta virt. eigenvalues --    0.05947   0.05967   0.07989   0.09091   0.09304

 Mulliken charges and spin densities:
               1          2
     1  C   -0.282282  -0.215113
     2  C    0.366268   0.091368
     3  C   -0.198139  -0.070742
     4  C   -0.195071   0.112071
     5  C   -0.198139  -0.070741
     6  C    0.366267   0.091368
     7  H    0.169999  -0.000334
     8  H    0.164357  -0.005731
     9  H    0.169999  -0.000334
    10  C    0.314262  -0.001095
    11  C    0.367260   0.194182
    12  C    0.291605  -0.021883
    13  C   -0.194450   0.014509
    14  C   -0.215801   0.042474
    15  C   -0.189531   0.023100
    16  H    0.190644  -0.000960
    17  C   -0.184442  -0.007852
    18  H    0.173233  -0.002218
    19  H    0.170174  -0.001395
    20  H    0.168518   0.000077
    21  C    0.314269  -0.001095
    22  C    0.367260   0.194191
    23  C    0.291602  -0.021884
    24  C   -0.194453   0.014508
    25  C   -0.215800   0.042476
    26  C   -0.189531   0.023103
    27  H    0.190643  -0.000960
    28  C   -0.184441  -0.007854
    29  H    0.173233  -0.002218
    30  H    0.170174  -0.001395
    31  H    0.168517   0.000077
    32  N   -0.722390  -0.004727
    33  N   -0.595461   0.040250
    34  N   -0.722385  -0.004727
    35  N   -0.595464   0.040251
    36  C   -0.399940  -0.004646
    37  H    0.202256   0.002220
    38  H    0.202264   0.002224
    39  H    0.215089  -0.000566
    40  C   -0.399940  -0.004646
    41  H    0.202264   0.002224
    42  H    0.202255   0.002220
    43  H    0.215089  -0.000567
    44  Co   0.050158   1.520787
 Sum of Mulliken charges =  -0.00000   2.00000

 Dipole moment (field-independent basis, Debye):
    X=              0.0001    Y=             -3.5072    Z=             -0.0003  Tot=              3.5072
 Quadrupole moment (field-independent basis, Debye-Ang):
   XX=           -136.8088   YY=           -132.7157   ZZ=           -173.7669
   XY=             -0.0001   XZ=             -0.0004   YZ=              0.0004

 Normal termination of Gaussian 16 at Wed Jul 17 21:04:44 2024.
