 Gaussian 16, Revision C.01,
 Gaussian 16:  ES64L-G16RevC.01  3-Jul-2019

 ----------------------------------------------------------------------
 # pbe1pbe em=gd3bj genecp g09default scf=(xqc,maxcycle=64) force guess
 =read nosymm
 ----------------------------------------------------------------------

 ----------
 Title Card
 ----------
 Symbolic Z-matrix:
 Charge =  0 Multiplicity = 1

                          Input orientation:
 ---------------------------------------------------------------------
 Center     Atomic      Atomic             Coordinates (Angstroms)
 Number     Number       Type             X           Y           Z
 ---------------------------------------------------------------------
      1          6           0       -0.000011    0.778148    0.000121
      2          6           0       -1.274577    1.356909    0.000004
      3          6           0       -1.246270    2.747287   -0.000004
      4          6           0        0.000012    3.393652    0.000013
      5          6           0        1.246257    2.747292    0.000045
      6          6           0        1.274598    1.356899    0.000045
      7          1           0       -2.157152    3.327996   -0.000042
      8          1           0       -0.000000    4.477890   -0.000012
      9          1           0        2.157159    3.327999    0.000051
     10          6           0        3.686025    0.583110   -0.000028
     11          6           0        1.910676   -0.903087    0.000087
     12          6           0        4.174280   -0.744300   -0.000092
     13          6           0        4.534600    1.665065   -0.000054
     14          6           0        5.539686   -0.999896   -0.000196
     15          6           0        5.922097    1.403199   -0.000170
     16          1           0        4.166669    2.683095    0.000010
     17          6           0        6.398650    0.103091   -0.000243
     18          1           0        5.911014   -2.019933   -0.000245
     19          1           0        6.608002    2.240650   -0.000195
     20          1           0        7.472803   -0.071336   -0.000327
     21          6           0       -3.686070    0.583152   -0.000041
     22          6           0       -1.910663   -0.903088    0.000054
     23          6           0       -4.174216   -0.744301   -0.000063
     24          6           0       -4.534555    1.665015   -0.000052
     25          6           0       -5.539732   -0.999904   -0.000099
     26          6           0       -5.922125    1.403202   -0.000099
     27          1           0       -4.166668    2.683101   -0.000023
     28          6           0       -6.398617    0.103069   -0.000125
     29          1           0       -5.911002   -2.019936   -0.000105
     30          1           0       -6.607998    2.240636   -0.000108
     31          1           0       -7.472807   -0.071348   -0.000153
     32          7           0       -2.300449    0.474461    0.000016
     33          7           0       -3.107575   -1.600467   -0.000035
     34          7           0        2.300453    0.474477    0.000084
     35          7           0        3.107562   -1.600449   -0.000031
     36          6           0        3.189086   -3.027836    0.000008
     37          1           0        3.708754   -3.392733   -0.893824
     38          1           0        3.708312   -3.392740    0.894094
     39          1           0        2.179334   -3.444753   -0.000263
     40          6           0       -3.189073   -3.027833    0.000047
     41          1           0       -3.708241   -3.392730    0.894176
     42          1           0       -3.708806   -3.392756   -0.893744
     43          1           0       -2.179325   -3.444755   -0.000291
     44         27           0        0.000011   -1.211139    0.000146
 ---------------------------------------------------------------------

 SCF Done:  E(UPBE1PBE) =  -1212.12391676     A.U. after   20 cycles

 Alpha  occ. eigenvalues --  -14.45804 -14.45804 -14.45042 -14.45042 -10.28174
 Alpha  occ. eigenvalues --  -10.28174 -10.27541 -10.27540 -10.27409 -10.27408
 Alpha  occ. eigenvalues --  -10.27340 -10.27339 -10.24996 -10.24995 -10.24098
 Alpha  occ. eigenvalues --  -10.24098 -10.23863 -10.23863 -10.23416 -10.23416
 Alpha  occ. eigenvalues --  -10.23359 -10.23359 -10.21286 -10.21282 -10.21013
 Alpha  occ. eigenvalues --  -10.18929  -3.83200  -2.34940  -2.34874  -2.31161
 Alpha  occ. eigenvalues --   -1.06030  -1.05962  -0.97173  -0.96831  -0.88254
 Alpha  occ. eigenvalues --   -0.87998  -0.84963  -0.80379  -0.78805  -0.77970
 Alpha  occ. eigenvalues --   -0.77894  -0.75614  -0.75076  -0.72994  -0.71816
 Alpha  occ. eigenvalues --   -0.66584  -0.65291  -0.64612  -0.64082  -0.62677
 Alpha  occ. eigenvalues --   -0.61449  -0.58870  -0.57309  -0.56632  -0.54110
 Alpha  occ. eigenvalues --   -0.53209  -0.51953  -0.49800  -0.49743  -0.49054
 Alpha  occ. eigenvalues --   -0.48224  -0.47900  -0.47406  -0.46748  -0.46242
 Alpha  occ. eigenvalues --   -0.45770  -0.45278  -0.44995  -0.44667  -0.44128
 Alpha  occ. eigenvalues --   -0.42459  -0.42030  -0.41074  -0.38589  -0.38292
 Alpha  occ. eigenvalues --   -0.38275  -0.37689  -0.36891  -0.36823  -0.36599
 Alpha  occ. eigenvalues --   -0.35309  -0.34567  -0.34478  -0.33948  -0.31596
 Alpha  occ. eigenvalues --   -0.28926  -0.26709  -0.25968  -0.24732  -0.24385
 Alpha  occ. eigenvalues --   -0.22721  -0.21287  -0.20608  -0.20308  -0.16280
 Alpha  occ. eigenvalues --   -0.15380  -0.14955
 Alpha virt. eigenvalues --   -0.04554  -0.02412  -0.00626   0.00081   0.00917
 Alpha virt. eigenvalues --    0.01348   0.02073   0.03396   0.05413   0.05895
 Alpha virt. eigenvalues --    0.06398   0.07370   0.09149   0.09361   0.10132

  Beta  occ. eigenvalues --  -14.45804 -14.45804 -14.45042 -14.45042 -10.28174
  Beta  occ. eigenvalues --  -10.28174 -10.27541 -10.27540 -10.27409 -10.27408
  Beta  occ. eigenvalues --  -10.27340 -10.27339 -10.24996 -10.24995 -10.24098
  Beta  occ. eigenvalues --  -10.24098 -10.23863 -10.23863 -10.23416 -10.23416
  Beta  occ. eigenvalues --  -10.23359 -10.23359 -10.21286 -10.21282 -10.21013
  Beta  occ. eigenvalues --  -10.18929  -3.83200  -2.34940  -2.34874  -2.31161
  Beta  occ. eigenvalues --   -1.06030  -1.05962  -0.97173  -0.96831  -0.88254
  Beta  occ. eigenvalues --   -0.87998  -0.84963  -0.80379  -0.78805  -0.77970
  Beta  occ. eigenvalues --   -0.77894  -0.75614  -0.75076  -0.72994  -0.71816
  Beta  occ. eigenvalues --   -0.66584  -0.65291  -0.64612  -0.64082  -0.62677
  Beta  occ. eigenvalues --   -0.61449  -0.58870  -0.57309  -0.56632  -0.54110
  Beta  occ. eigenvalues --   -0.53209  -0.51953  -0.49800  -0.49743  -0.49054
  Beta  occ. eigenvalues --   -0.48224  -0.47900  -0.47406  -0.46748  -0.46242
  Beta  occ. eigenvalues --   -0.45770  -0.45278  -0.44995  -0.44667  -0.44128
  Beta  occ. eigenvalues --   -0.42459  -0.42030  -0.41074  -0.38589  -0.38292
  Beta  occ. eigenvalues --   -0.38275  -0.37689  -0.36891  -0.36823  -0.36599
  Beta  occ. eigenvalues --   -0.35309  -0.34567  -0.34478  -0.33948  -0.31596
  Beta  occ. eigenvalues --   -0.28926  -0.26709  -0.25968  -0.24732  -0.24385
  Beta  occ. eigenvalues --   -0.22721  -0.21287  -0.20608  -0.20308  -0.16280
  Beta  occ. eigenvalues --   -0.15380  -0.14955
  Beta virt. eigenvalues --   -0.04554  -0.02412  -0.00626   0.00081   0.00917
  Beta virt. eigenvalues --    0.01348   0.02073   0.03396   0.05413   0.05895
  Beta virt. eigenvalues --    0.06398   0.07370   0.09149   0.09361   0.10132

 Mulliken charges and spin densities:
               1          2
     1  C   -0.190265  -0.000001
     2  C    0.342603   0.000000
     3  C   -0.207679  -0.000000
     4  C   -0.190097   0.000000
     5  C   -0.207665  -0.000000
     6  C    0.342584   0.000000
     7  H    0.157402  -0.000000
     8  H    0.155211  -0.000000
     9  H    0.157401  -0.000000
    10  C    0.315833   0.000000
    11  C    0.402530  -0.000001
    12  C    0.291498   0.000000
    13  C   -0.193114  -0.000000
    14  C   -0.209238  -0.000000
    15  C   -0.188234  -0.000000
    16  H    0.197600   0.000000
    17  C   -0.184359   0.000000
    18  H    0.176392   0.000000
    19  H    0.174173   0.000000
    20  H    0.170171  -0.000000
    21  C    0.315937   0.000000
    22  C    0.402525  -0.000001
    23  C    0.291415   0.000000
    24  C   -0.193170  -0.000000
    25  C   -0.209189  -0.000000
    26  C   -0.188236  -0.000000
    27  H    0.197605   0.000000
    28  C   -0.184355   0.000000
    29  H    0.176390   0.000000
    30  H    0.174179   0.000000
    31  H    0.170164  -0.000000
    32  N   -0.720995  -0.000000
    33  N   -0.586406  -0.000000
    34  N   -0.720950  -0.000000
    35  N   -0.586437  -0.000000
    36  C   -0.401918   0.000000
    37  H    0.202652   0.000000
    38  H    0.202664  -0.000000
    39  H    0.226089  -0.000000
    40  C   -0.401924   0.000000
    41  H    0.202663  -0.000000
    42  H    0.202650   0.000000
    43  H    0.226092  -0.000000
    44  Co  -0.110192   0.000002
 Sum of Mulliken charges =  -0.00000   0.00000

 Dipole moment (field-independent basis, Debye):
    X=              0.0001    Y=             -3.7688    Z=             -0.0002  Tot=              3.7688
 Quadrupole moment (field-independent basis, Debye-Ang):
   XX=           -126.8649   YY=           -134.5385   ZZ=           -172.1211
   XY=             -0.0010   XZ=             -0.0005   YZ=              0.0000

 Normal termination of Gaussian 16 at Wed Jul 17 21:06:42 2024.
