 Gaussian 16, Revision C.01,
 Gaussian 16:  ES64L-G16RevC.01  3-Jul-2019

 ----------------------------------------------------------------------
 # pbe1pbe em=gd3bj genecp g09default scf=(xqc,maxcycle=64) force guess
 =read nosymm
 ----------------------------------------------------------------------

 ----------
 Title Card
 ----------
 Symbolic Z-matrix:
 Charge =  0 Multiplicity = 3

                          Input orientation:
 ---------------------------------------------------------------------
 Center     Atomic      Atomic             Coordinates (Angstroms)
 Number     Number       Type             X           Y           Z
 ---------------------------------------------------------------------
      1          6           0       -0.000011    0.778148    0.000121
      2          6           0       -1.274577    1.356909    0.000004
      3          6           0       -1.246270    2.747287   -0.000004
      4          6           0        0.000012    3.393652    0.000013
      5          6           0        1.246257    2.747292    0.000045
      6          6           0        1.274598    1.356899    0.000045
      7          1           0       -2.157152    3.327996   -0.000042
      8          1           0       -0.000000    4.477890   -0.000012
      9          1           0        2.157159    3.327999    0.000051
     10          6           0        3.686025    0.583110   -0.000028
     11          6           0        1.910676   -0.903087    0.000087
     12          6           0        4.174280   -0.744300   -0.000092
     13          6           0        4.534600    1.665065   -0.000054
     14          6           0        5.539686   -0.999896   -0.000196
     15          6           0        5.922097    1.403199   -0.000170
     16          1           0        4.166669    2.683095    0.000010
     17          6           0        6.398650    0.103091   -0.000243
     18          1           0        5.911014   -2.019933   -0.000245
     19          1           0        6.608002    2.240650   -0.000195
     20          1           0        7.472803   -0.071336   -0.000327
     21          6           0       -3.686070    0.583152   -0.000041
     22          6           0       -1.910663   -0.903088    0.000054
     23          6           0       -4.174216   -0.744301   -0.000063
     24          6           0       -4.534555    1.665015   -0.000052
     25          6           0       -5.539732   -0.999904   -0.000099
     26          6           0       -5.922125    1.403202   -0.000099
     27          1           0       -4.166668    2.683101   -0.000023
     28          6           0       -6.398617    0.103069   -0.000125
     29          1           0       -5.911002   -2.019936   -0.000105
     30          1           0       -6.607998    2.240636   -0.000108
     31          1           0       -7.472807   -0.071348   -0.000153
     32          7           0       -2.300449    0.474461    0.000016
     33          7           0       -3.107575   -1.600467   -0.000035
     34          7           0        2.300453    0.474477    0.000084
     35          7           0        3.107562   -1.600449   -0.000031
     36          6           0        3.189086   -3.027836    0.000008
     37          1           0        3.708754   -3.392733   -0.893824
     38          1           0        3.708312   -3.392740    0.894094
     39          1           0        2.179334   -3.444753   -0.000263
     40          6           0       -3.189073   -3.027833    0.000047
     41          1           0       -3.708241   -3.392730    0.894176
     42          1           0       -3.708806   -3.392756   -0.893744
     43          1           0       -2.179325   -3.444755   -0.000291
     44         27           0        0.000011   -1.211139    0.000146
 ---------------------------------------------------------------------

 SCF Done:  E(UPBE1PBE) =  -1212.12027974     A.U. after   25 cycles

 Alpha  occ. eigenvalues --  -14.45291 -14.45291 -14.44844 -14.44844 -10.27887
 Alpha  occ. eigenvalues --  -10.27887 -10.27344 -10.27344 -10.27305 -10.27304
 Alpha  occ. eigenvalues --  -10.27090 -10.27090 -10.26312 -10.26311 -10.23581
 Alpha  occ. eigenvalues --  -10.23580 -10.23463 -10.23462 -10.22979 -10.22978
 Alpha  occ. eigenvalues --  -10.22908 -10.22907 -10.22273 -10.22148 -10.22139
 Alpha  occ. eigenvalues --  -10.20579  -3.93505  -2.45704  -2.43667  -2.43049
 Alpha  occ. eigenvalues --   -1.05884  -1.05801  -0.97241  -0.96838  -0.88099
 Alpha  occ. eigenvalues --   -0.87688  -0.85581  -0.80503  -0.78893  -0.77708
 Alpha  occ. eigenvalues --   -0.77688  -0.75565  -0.74942  -0.73267  -0.72345
 Alpha  occ. eigenvalues --   -0.66782  -0.65445  -0.64435  -0.64086  -0.62775
 Alpha  occ. eigenvalues --   -0.61398  -0.58853  -0.57710  -0.56567  -0.53948
 Alpha  occ. eigenvalues --   -0.53082  -0.52213  -0.49853  -0.49773  -0.49161
 Alpha  occ. eigenvalues --   -0.48523  -0.48190  -0.47151  -0.46793  -0.45994
 Alpha  occ. eigenvalues --   -0.45710  -0.45262  -0.44954  -0.44789  -0.44235
 Alpha  occ. eigenvalues --   -0.42750  -0.42052  -0.41338  -0.38984  -0.38444
 Alpha  occ. eigenvalues --   -0.38412  -0.37825  -0.37453  -0.37145  -0.36960
 Alpha  occ. eigenvalues --   -0.36331  -0.34932  -0.34597  -0.34077  -0.31995
 Alpha  occ. eigenvalues --   -0.31509  -0.30247  -0.27413  -0.26949  -0.26638
 Alpha  occ. eigenvalues --   -0.26590  -0.26009  -0.24494  -0.24005  -0.22845
 Alpha  occ. eigenvalues --   -0.20743  -0.20494  -0.10187
 Alpha virt. eigenvalues --   -0.06133  -0.02803  -0.00050   0.00069   0.00392
 Alpha virt. eigenvalues --    0.02328   0.02835   0.03899   0.03921   0.05571
 Alpha virt. eigenvalues --    0.06240   0.07820   0.07950   0.09795   0.10256

  Beta  occ. eigenvalues --  -14.45161 -14.45160 -14.44817 -14.44816 -10.27655
  Beta  occ. eigenvalues --  -10.27654 -10.27353 -10.27353 -10.27307 -10.27306
  Beta  occ. eigenvalues --  -10.27127 -10.27127 -10.26192 -10.26191 -10.23521
  Beta  occ. eigenvalues --  -10.23520 -10.23441 -10.23441 -10.22985 -10.22984
  Beta  occ. eigenvalues --  -10.22875 -10.22874 -10.22253 -10.22243 -10.22129
  Beta  occ. eigenvalues --  -10.21053  -3.86191  -2.37551  -2.37025  -2.34271
  Beta  occ. eigenvalues --   -1.05675  -1.05588  -0.97059  -0.96627  -0.88076
  Beta  occ. eigenvalues --   -0.87614  -0.85636  -0.80430  -0.78861  -0.77653
  Beta  occ. eigenvalues --   -0.77618  -0.75420  -0.74738  -0.73271  -0.72507
  Beta  occ. eigenvalues --   -0.66813  -0.65302  -0.64185  -0.64060  -0.62745
  Beta  occ. eigenvalues --   -0.61297  -0.58833  -0.57751  -0.56547  -0.53915
  Beta  occ. eigenvalues --   -0.53058  -0.52175  -0.49390  -0.49324  -0.49113
  Beta  occ. eigenvalues --   -0.48528  -0.48307  -0.47126  -0.46724  -0.45962
  Beta  occ. eigenvalues --   -0.45715  -0.45221  -0.44788  -0.44583  -0.43916
  Beta  occ. eigenvalues --   -0.42771  -0.42025  -0.41346  -0.38669  -0.38509
  Beta  occ. eigenvalues --   -0.38475  -0.37427  -0.37197  -0.36580  -0.36547
  Beta  occ. eigenvalues --   -0.35980  -0.34990  -0.34036  -0.33419  -0.31624
  Beta  occ. eigenvalues --   -0.29641  -0.28168  -0.26530  -0.25916  -0.24917
  Beta  occ. eigenvalues --   -0.23813  -0.23753  -0.21927  -0.20574  -0.19867
  Beta  occ. eigenvalues --   -0.19773
  Beta virt. eigenvalues --   -0.04557  -0.04081  -0.00651  -0.00628   0.00103
  Beta virt. eigenvalues --    0.01287   0.01752   0.02485   0.03648   0.05477
  Beta virt. eigenvalues --    0.05856   0.05952   0.07939   0.09027   0.09350

 Mulliken charges and spin densities:
               1          2
     1  C   -0.264009  -0.278519
     2  C    0.388753   0.082349
     3  C   -0.208578  -0.065443
     4  C   -0.186464   0.096487
     5  C   -0.208566  -0.065437
     6  C    0.388735   0.082354
     7  H    0.168250  -0.002219
     8  H    0.163050  -0.004854
     9  H    0.168248  -0.002220
    10  C    0.316070   0.000041
    11  C    0.364983   0.197054
    12  C    0.294354  -0.022573
    13  C   -0.197711   0.012917
    14  C   -0.215448   0.044087
    15  C   -0.190506   0.025931
    16  H    0.191556  -0.000902
    17  C   -0.183543  -0.010373
    18  H    0.172868  -0.002289
    19  H    0.170771  -0.001534
    20  H    0.167618   0.000195
    21  C    0.316176   0.000047
    22  C    0.364975   0.197079
    23  C    0.294268  -0.022582
    24  C   -0.197769   0.012910
    25  C   -0.215401   0.044105
    26  C   -0.190511   0.025961
    27  H    0.191558  -0.000902
    28  C   -0.183539  -0.010391
    29  H    0.172864  -0.002290
    30  H    0.170774  -0.001536
    31  H    0.167609   0.000196
    32  N   -0.727862  -0.004991
    33  N   -0.590407   0.037671
    34  N   -0.727816  -0.005003
    35  N   -0.590440   0.037694
    36  C   -0.400577  -0.004428
    37  H    0.202743   0.002027
    38  H    0.202753   0.002032
    39  H    0.217147  -0.000670
    40  C   -0.400582  -0.004425
    41  H    0.202752   0.002031
    42  H    0.202741   0.002025
    43  H    0.217149  -0.000670
    44  Co   0.000962   1.609056
 Sum of Mulliken charges =  -0.00000   2.00000

 Dipole moment (field-independent basis, Debye):
    X=              0.0006    Y=             -3.5666    Z=             -0.0007  Tot=              3.5666
 Quadrupole moment (field-independent basis, Debye-Ang):
   XX=           -137.0100   YY=           -132.8538   ZZ=           -173.6962
   XY=             -0.0008   XZ=             -0.0004   YZ=              0.0013

 Normal termination of Gaussian 16 at Wed Jul 17 21:06:05 2024.
