 Gaussian 16, Revision C.01,
 Gaussian 16:  ES64L-G16RevC.01  3-Jul-2019

 ----------------------------------------------------------------------
 # pbe1pbe em=gd3bj genecp g09default scf=(xqc,maxcycle=64) force guess
 =read nosymm
 ----------------------------------------------------------------------

 ----------
 Title Card
 ----------
 Symbolic Z-matrix:
 Charge =  0 Multiplicity = 1

                          Input orientation:
 ---------------------------------------------------------------------
 Center     Atomic      Atomic             Coordinates (Angstroms)
 Number     Number       Type             X           Y           Z
 ---------------------------------------------------------------------
      1          6           0        0.000005    0.822078    0.000117
      2          6           0       -1.296378    1.356420   -0.000000
      3          6           0       -1.251366    2.749269   -0.000006
      4          6           0       -0.000001    3.381900    0.000013
      5          6           0        1.251373    2.749265    0.000042
      6          6           0        1.296369    1.356423    0.000039
      7          1           0       -2.160854    3.331342   -0.000040
      8          1           0        0.000000    4.465928   -0.000012
      9          1           0        2.160856    3.331342    0.000051
     10          6           0        3.695524    0.584154   -0.000029
     11          6           0        1.919392   -0.904189    0.000097
     12          6           0        4.181669   -0.744789   -0.000088
     13          6           0        4.545367    1.667032   -0.000056
     14          6           0        5.542693   -1.001057   -0.000192
     15          6           0        5.929089    1.405281   -0.000171
     16          1           0        4.169720    2.683069    0.000008
     17          6           0        6.406934    0.106299   -0.000244
     18          1           0        5.912548   -2.019763   -0.000242
     19          1           0        6.616740    2.243616   -0.000195
     20          1           0        7.475688   -0.071236   -0.000329
     21          6           0       -3.695510    0.584139   -0.000042
     22          6           0       -1.919380   -0.904197    0.000073
     23          6           0       -4.181675   -0.744797   -0.000063
     24          6           0       -4.545375    1.667040   -0.000054
     25          6           0       -5.542674   -1.001066   -0.000097
     26          6           0       -5.929087    1.405271   -0.000100
     27          1           0       -4.169721    2.683061   -0.000024
     28          6           0       -6.406935    0.106296   -0.000126
     29          1           0       -5.912541   -2.019773   -0.000103
     30          1           0       -6.616743    2.243610   -0.000107
     31          1           0       -7.475681   -0.071247   -0.000154
     32          7           0       -2.311430    0.482036    0.000012
     33          7           0       -3.120163   -1.606204   -0.000040
     34          7           0        2.311434    0.482027    0.000075
     35          7           0        3.120171   -1.606199   -0.000032
     36          6           0        3.195978   -3.028639    0.000009
     37          1           0        3.711140   -3.399783   -0.894798
     38          1           0        3.710689   -3.399796    0.895075
     39          1           0        2.184681   -3.446095   -0.000271
     40          6           0       -3.195972   -3.028644    0.000047
     41          1           0       -3.710617   -3.399783    0.895157
     42          1           0       -3.711192   -3.399807   -0.894716
     43          1           0       -2.184672   -3.446096   -0.000299
     44         27           0        0.000011   -1.229660    0.000154
 ---------------------------------------------------------------------

 SCF Done:  E(UPBE1PBE) =  -1212.10538957     A.U. after   20 cycles

 Alpha  occ. eigenvalues --  -14.45860 -14.45860 -14.45212 -14.45212 -10.28402
 Alpha  occ. eigenvalues --  -10.28402 -10.27641 -10.27640 -10.27441 -10.27441
 Alpha  occ. eigenvalues --  -10.27361 -10.27360 -10.25202 -10.25201 -10.24093
 Alpha  occ. eigenvalues --  -10.24093 -10.23882 -10.23882 -10.23436 -10.23436
 Alpha  occ. eigenvalues --  -10.23380 -10.23380 -10.21315 -10.21311 -10.20929
 Alpha  occ. eigenvalues --  -10.19255  -3.83122  -2.34838  -2.34787  -2.31092
 Alpha  occ. eigenvalues --   -1.06040  -1.05974  -0.97464  -0.97151  -0.88301
 Alpha  occ. eigenvalues --   -0.88041  -0.85040  -0.80552  -0.78936  -0.78055
 Alpha  occ. eigenvalues --   -0.77908  -0.75582  -0.75084  -0.73127  -0.71691
 Alpha  occ. eigenvalues --   -0.66730  -0.65361  -0.64569  -0.64233  -0.62661
 Alpha  occ. eigenvalues --   -0.61558  -0.58939  -0.57287  -0.56756  -0.54199
 Alpha  occ. eigenvalues --   -0.53315  -0.52057  -0.49850  -0.49792  -0.49112
 Alpha  occ. eigenvalues --   -0.48750  -0.47903  -0.47428  -0.46690  -0.46301
 Alpha  occ. eigenvalues --   -0.45790  -0.45397  -0.45023  -0.44795  -0.44250
 Alpha  occ. eigenvalues --   -0.42517  -0.41938  -0.40996  -0.38665  -0.38393
 Alpha  occ. eigenvalues --   -0.38218  -0.37597  -0.37010  -0.36918  -0.36389
 Alpha  occ. eigenvalues --   -0.35111  -0.34688  -0.34458  -0.34004  -0.31670
 Alpha  occ. eigenvalues --   -0.28961  -0.26721  -0.25890  -0.24766  -0.24450
 Alpha  occ. eigenvalues --   -0.21498  -0.21255  -0.20351  -0.20175  -0.16342
 Alpha  occ. eigenvalues --   -0.15289  -0.14906
 Alpha virt. eigenvalues --   -0.04653  -0.02492  -0.00667  -0.00094   0.00830
 Alpha virt. eigenvalues --    0.01312   0.02056   0.03292   0.05428   0.05883
 Alpha virt. eigenvalues --    0.06198   0.07300   0.09035   0.09334   0.10132

  Beta  occ. eigenvalues --  -14.45860 -14.45860 -14.45212 -14.45212 -10.28402
  Beta  occ. eigenvalues --  -10.28402 -10.27641 -10.27640 -10.27441 -10.27441
  Beta  occ. eigenvalues --  -10.27361 -10.27360 -10.25202 -10.25201 -10.24093
  Beta  occ. eigenvalues --  -10.24093 -10.23882 -10.23882 -10.23436 -10.23436
  Beta  occ. eigenvalues --  -10.23380 -10.23380 -10.21315 -10.21311 -10.20929
  Beta  occ. eigenvalues --  -10.19255  -3.83122  -2.34838  -2.34787  -2.31092
  Beta  occ. eigenvalues --   -1.06040  -1.05974  -0.97464  -0.97151  -0.88301
  Beta  occ. eigenvalues --   -0.88041  -0.85040  -0.80552  -0.78936  -0.78055
  Beta  occ. eigenvalues --   -0.77908  -0.75582  -0.75084  -0.73127  -0.71691
  Beta  occ. eigenvalues --   -0.66730  -0.65361  -0.64569  -0.64233  -0.62661
  Beta  occ. eigenvalues --   -0.61558  -0.58939  -0.57287  -0.56756  -0.54199
  Beta  occ. eigenvalues --   -0.53315  -0.52057  -0.49850  -0.49792  -0.49112
  Beta  occ. eigenvalues --   -0.48750  -0.47903  -0.47428  -0.46690  -0.46301
  Beta  occ. eigenvalues --   -0.45790  -0.45397  -0.45023  -0.44795  -0.44250
  Beta  occ. eigenvalues --   -0.42517  -0.41938  -0.40996  -0.38665  -0.38393
  Beta  occ. eigenvalues --   -0.38218  -0.37597  -0.37010  -0.36918  -0.36389
  Beta  occ. eigenvalues --   -0.35111  -0.34688  -0.34458  -0.34004  -0.31670
  Beta  occ. eigenvalues --   -0.28961  -0.26721  -0.25890  -0.24766  -0.24450
  Beta  occ. eigenvalues --   -0.21498  -0.21255  -0.20351  -0.20175  -0.16342
  Beta  occ. eigenvalues --   -0.15289  -0.14906
  Beta virt. eigenvalues --   -0.04653  -0.02492  -0.00667  -0.00094   0.00830
  Beta virt. eigenvalues --    0.01312   0.02056   0.03292   0.05428   0.05883
  Beta virt. eigenvalues --    0.06198   0.07300   0.09035   0.09334   0.10132

 Mulliken charges and spin densities:
               1          2
     1  C   -0.183654   0.000004
     2  C    0.355013  -0.000000
     3  C   -0.215209   0.000000
     4  C   -0.181362  -0.000000
     5  C   -0.215214   0.000000
     6  C    0.355021  -0.000000
     7  H    0.155610   0.000000
     8  H    0.153744   0.000000
     9  H    0.155610   0.000000
    10  C    0.314228  -0.000000
    11  C    0.400985   0.000001
    12  C    0.295106  -0.000000
    13  C   -0.190892   0.000000
    14  C   -0.213009   0.000000
    15  C   -0.188636   0.000000
    16  H    0.198210  -0.000000
    17  C   -0.184065   0.000000
    18  H    0.176592  -0.000000
    19  H    0.174373  -0.000000
    20  H    0.170449   0.000000
    21  C    0.314204  -0.000000
    22  C    0.400985   0.000001
    23  C    0.295129  -0.000000
    24  C   -0.190882   0.000000
    25  C   -0.213022   0.000000
    26  C   -0.188634   0.000000
    27  H    0.198208  -0.000000
    28  C   -0.184065   0.000000
    29  H    0.176593  -0.000000
    30  H    0.174372  -0.000000
    31  H    0.170449   0.000000
    32  N   -0.720060   0.000000
    33  N   -0.581361   0.000000
    34  N   -0.720070   0.000000
    35  N   -0.581354   0.000000
    36  C   -0.403466   0.000000
    37  H    0.202432   0.000000
    38  H    0.202442   0.000000
    39  H    0.226663   0.000000
    40  C   -0.403466   0.000000
    41  H    0.202442   0.000000
    42  H    0.202431   0.000000
    43  H    0.226662   0.000000
    44  Co  -0.139533  -0.000006
 Sum of Mulliken charges =  -0.00000   0.00000

 Dipole moment (field-independent basis, Debye):
    X=              0.0001    Y=             -3.8053    Z=             -0.0002  Tot=              3.8053
 Quadrupole moment (field-independent basis, Debye-Ang):
   XX=           -126.5789   YY=           -134.9075   ZZ=           -172.1459
   XY=              0.0002   XZ=             -0.0005   YZ=              0.0001

 Normal termination of Gaussian 16 at Wed Jul 17 21:08:05 2024.
