 Gaussian 16, Revision C.01,
 Gaussian 16:  ES64L-G16RevC.01  3-Jul-2019

 ----------------------------------------------------------------------
 # pbe1pbe em=gd3bj genecp g09default scf=(xqc,maxcycle=64) force guess
 =read nosymm
 ----------------------------------------------------------------------

 ----------
 Title Card
 ----------
 Symbolic Z-matrix:
 Charge =  0 Multiplicity = 3

                          Input orientation:
 ---------------------------------------------------------------------
 Center     Atomic      Atomic             Coordinates (Angstroms)
 Number     Number       Type             X           Y           Z
 ---------------------------------------------------------------------
      1          6           0        0.000005    0.822078    0.000117
      2          6           0       -1.296378    1.356420   -0.000000
      3          6           0       -1.251366    2.749269   -0.000006
      4          6           0       -0.000001    3.381900    0.000013
      5          6           0        1.251373    2.749265    0.000042
      6          6           0        1.296369    1.356423    0.000039
      7          1           0       -2.160854    3.331342   -0.000040
      8          1           0        0.000000    4.465928   -0.000012
      9          1           0        2.160856    3.331342    0.000051
     10          6           0        3.695524    0.584154   -0.000029
     11          6           0        1.919392   -0.904189    0.000097
     12          6           0        4.181669   -0.744789   -0.000088
     13          6           0        4.545367    1.667032   -0.000056
     14          6           0        5.542693   -1.001057   -0.000192
     15          6           0        5.929089    1.405281   -0.000171
     16          1           0        4.169720    2.683069    0.000008
     17          6           0        6.406934    0.106299   -0.000244
     18          1           0        5.912548   -2.019763   -0.000242
     19          1           0        6.616740    2.243616   -0.000195
     20          1           0        7.475688   -0.071236   -0.000329
     21          6           0       -3.695510    0.584139   -0.000042
     22          6           0       -1.919380   -0.904197    0.000073
     23          6           0       -4.181675   -0.744797   -0.000063
     24          6           0       -4.545375    1.667040   -0.000054
     25          6           0       -5.542674   -1.001066   -0.000097
     26          6           0       -5.929087    1.405271   -0.000100
     27          1           0       -4.169721    2.683061   -0.000024
     28          6           0       -6.406935    0.106296   -0.000126
     29          1           0       -5.912541   -2.019773   -0.000103
     30          1           0       -6.616743    2.243610   -0.000107
     31          1           0       -7.475681   -0.071247   -0.000154
     32          7           0       -2.311430    0.482036    0.000012
     33          7           0       -3.120163   -1.606204   -0.000040
     34          7           0        2.311434    0.482027    0.000075
     35          7           0        3.120171   -1.606199   -0.000032
     36          6           0        3.195978   -3.028639    0.000009
     37          1           0        3.711140   -3.399783   -0.894798
     38          1           0        3.710689   -3.399796    0.895075
     39          1           0        2.184681   -3.446095   -0.000271
     40          6           0       -3.195972   -3.028644    0.000047
     41          1           0       -3.710617   -3.399783    0.895157
     42          1           0       -3.711192   -3.399807   -0.894716
     43          1           0       -2.184672   -3.446096   -0.000299
     44         27           0        0.000011   -1.229660    0.000154
 ---------------------------------------------------------------------

 SCF Done:  E(UPBE1PBE) =  -1212.10632880     A.U. after   26 cycles

 Alpha  occ. eigenvalues --  -14.45289 -14.45289 -14.45009 -14.45009 -10.28027
 Alpha  occ. eigenvalues --  -10.28026 -10.27404 -10.27403 -10.27313 -10.27313
 Alpha  occ. eigenvalues --  -10.27110 -10.27110 -10.26571 -10.26571 -10.23572
 Alpha  occ. eigenvalues --  -10.23572 -10.23497 -10.23497 -10.23004 -10.23004
 Alpha  occ. eigenvalues --  -10.22934 -10.22934 -10.22262 -10.22243 -10.22185
 Alpha  occ. eigenvalues --  -10.21046  -3.93283  -2.45312  -2.43499  -2.43032
 Alpha  occ. eigenvalues --   -1.05875  -1.05793  -0.97508  -0.97139  -0.88158
 Alpha  occ. eigenvalues --   -0.87732  -0.85673  -0.80675  -0.78983  -0.77774
 Alpha  occ. eigenvalues --   -0.77739  -0.75532  -0.74920  -0.73389  -0.72222
 Alpha  occ. eigenvalues --   -0.66934  -0.65527  -0.64383  -0.64224  -0.62728
 Alpha  occ. eigenvalues --   -0.61491  -0.58941  -0.57644  -0.56727  -0.54041
 Alpha  occ. eigenvalues --   -0.53167  -0.52342  -0.49871  -0.49787  -0.49174
 Alpha  occ. eigenvalues --   -0.49076  -0.48155  -0.47154  -0.46731  -0.46023
 Alpha  occ. eigenvalues --   -0.45750  -0.45344  -0.45074  -0.44851  -0.44346
 Alpha  occ. eigenvalues --   -0.42855  -0.41920  -0.41218  -0.39038  -0.38564
 Alpha  occ. eigenvalues --   -0.38253  -0.37660  -0.37357  -0.37078  -0.36967
 Alpha  occ. eigenvalues --   -0.36432  -0.35101  -0.34560  -0.34101  -0.32060
 Alpha  occ. eigenvalues --   -0.31144  -0.30213  -0.26881  -0.26632  -0.26461
 Alpha  occ. eigenvalues --   -0.26113  -0.25968  -0.24557  -0.23964  -0.22868
 Alpha  occ. eigenvalues --   -0.20714  -0.20461  -0.10262
 Alpha virt. eigenvalues --   -0.06186  -0.02984  -0.00230   0.00002   0.00352
 Alpha virt. eigenvalues --    0.02299   0.02802   0.03670   0.03927   0.05576
 Alpha virt. eigenvalues --    0.06170   0.07744   0.07861   0.09741   0.10247

  Beta  occ. eigenvalues --  -14.45158 -14.45158 -14.44986 -14.44986 -10.27790
  Beta  occ. eigenvalues --  -10.27790 -10.27404 -10.27404 -10.27323 -10.27322
  Beta  occ. eigenvalues --  -10.27147 -10.27146 -10.26456 -10.26456 -10.23513
  Beta  occ. eigenvalues --  -10.23513 -10.23477 -10.23477 -10.23011 -10.23011
  Beta  occ. eigenvalues --  -10.22902 -10.22902 -10.22345 -10.22341 -10.22090
  Beta  occ. eigenvalues --  -10.21640  -3.85482  -2.36635  -2.36257  -2.33817
  Beta  occ. eigenvalues --   -1.05670  -1.05583  -0.97339  -0.96933  -0.88162
  Beta  occ. eigenvalues --   -0.87661  -0.85786  -0.80613  -0.78961  -0.77709
  Beta  occ. eigenvalues --   -0.77693  -0.75398  -0.74715  -0.73400  -0.72468
  Beta  occ. eigenvalues --   -0.66972  -0.65497  -0.64166  -0.64125  -0.62721
  Beta  occ. eigenvalues --   -0.61398  -0.58932  -0.57748  -0.56719  -0.54024
  Beta  occ. eigenvalues --   -0.53153  -0.52326  -0.49404  -0.49334  -0.49104
  Beta  occ. eigenvalues --   -0.49101  -0.48378  -0.47131  -0.46678  -0.45991
  Beta  occ. eigenvalues --   -0.45769  -0.45310  -0.44865  -0.44721  -0.44030
  Beta  occ. eigenvalues --   -0.42888  -0.41893  -0.41229  -0.38774  -0.38619
  Beta  occ. eigenvalues --   -0.38357  -0.37333  -0.37069  -0.36685  -0.36667
  Beta  occ. eigenvalues --   -0.35743  -0.35189  -0.34006  -0.33441  -0.31740
  Beta  occ. eigenvalues --   -0.29627  -0.27102  -0.26561  -0.25876  -0.24800
  Beta  occ. eigenvalues --   -0.23802  -0.23199  -0.21889  -0.20528  -0.19580
  Beta  occ. eigenvalues --   -0.19479
  Beta virt. eigenvalues --   -0.04536  -0.03863  -0.00681  -0.00311  -0.00074
  Beta virt. eigenvalues --    0.01345   0.01784   0.02487   0.03590   0.05445
  Beta virt. eigenvalues --    0.05799   0.05961   0.07892   0.08910   0.09340

 Mulliken charges and spin densities:
               1          2
     1  C   -0.252232  -0.351882
     2  C    0.402090   0.081275
     3  C   -0.216431  -0.064474
     4  C   -0.178309   0.087497
     5  C   -0.216436  -0.064472
     6  C    0.402096   0.081269
     7  H    0.167594  -0.004242
     8  H    0.161845  -0.004418
     9  H    0.167594  -0.004242
    10  C    0.314192   0.000499
    11  C    0.361543   0.200669
    12  C    0.298059  -0.022228
    13  C   -0.195323   0.011905
    14  C   -0.219148   0.043442
    15  C   -0.190919   0.025107
    16  H    0.191937  -0.000856
    17  C   -0.183212  -0.010534
    18  H    0.173190  -0.002251
    19  H    0.170960  -0.001482
    20  H    0.167939   0.000204
    21  C    0.314167   0.000499
    22  C    0.361538   0.200705
    23  C    0.298083  -0.022229
    24  C   -0.195313   0.011906
    25  C   -0.219162   0.043444
    26  C   -0.190918   0.025105
    27  H    0.191935  -0.000856
    28  C   -0.183212  -0.010533
    29  H    0.173190  -0.002251
    30  H    0.170958  -0.001482
    31  H    0.167939   0.000203
    32  N   -0.727114  -0.006858
    33  N   -0.585155   0.037449
    34  N   -0.727125  -0.006853
    35  N   -0.585148   0.037442
    36  C   -0.402143  -0.004490
    37  H    0.202105   0.002119
    38  H    0.202114   0.002124
    39  H    0.218290  -0.000763
    40  C   -0.402141  -0.004491
    41  H    0.202113   0.002125
    42  H    0.202104   0.002119
    43  H    0.218288  -0.000763
    44  Co  -0.032419   1.695543
 Sum of Mulliken charges =  -0.00000   2.00000

 Dipole moment (field-independent basis, Debye):
    X=              0.0003    Y=             -3.5052    Z=             -0.0006  Tot=              3.5052
 Quadrupole moment (field-independent basis, Debye-Ang):
   XX=           -136.7438   YY=           -133.3218   ZZ=           -173.6787
   XY=             -0.0000   XZ=             -0.0004   YZ=              0.0011

 Normal termination of Gaussian 16 at Wed Jul 17 21:07:28 2024.
