 Gaussian 16, Revision C.01,
 Gaussian 16:  ES64L-G16RevC.01  3-Jul-2019

 ----------------------------------------------------------------------
 # pbe1pbe em=gd3bj genecp g09default scf=(xqc,maxcycle=64) force guess
 =read nosymm
 ----------------------------------------------------------------------

 ----------
 Title Card
 ----------
 Symbolic Z-matrix:
 Charge =  0 Multiplicity = 1

                          Input orientation:
 ---------------------------------------------------------------------
 Center     Atomic      Atomic             Coordinates (Angstroms)
 Number     Number       Type             X           Y           Z
 ---------------------------------------------------------------------
      1          6           0        0.000001    0.843782    0.000052
      2          6           0       -1.293025    1.361074    0.000013
      3          6           0       -1.243026    2.754228   -0.000007
      4          6           0       -0.000003    3.396959    0.000012
      5          6           0        1.243042    2.754227    0.000040
      6          6           0        1.293018    1.361074    0.000053
      7          1           0       -2.157651    3.331077   -0.000039
      8          1           0        0.000001    4.478290   -0.000010
      9          1           0        2.157652    3.331074    0.000052
     10          6           0        3.701672    0.583134   -0.000025
     11          6           0        1.928461   -0.906153    0.000137
     12          6           0        4.192011   -0.744984   -0.000092
     13          6           0        4.553495    1.665857   -0.000058
     14          6           0        5.551956   -1.000599   -0.000195
     15          6           0        5.930453    1.407955   -0.000171
     16          1           0        4.172905    2.682559    0.000008
     17          6           0        6.414934    0.105091   -0.000243
     18          1           0        5.919305   -2.020629   -0.000241
     19          1           0        6.622068    2.244833   -0.000196
     20          1           0        7.480529   -0.071152   -0.000329
     21          6           0       -3.701659    0.583127   -0.000037
     22          6           0       -1.928440   -0.906163    0.000108
     23          6           0       -4.192018   -0.745001   -0.000065
     24          6           0       -4.553511    1.665855   -0.000054
     25          6           0       -5.551932   -1.000603   -0.000097
     26          6           0       -5.930441    1.407950   -0.000101
     27          1           0       -4.172904    2.682555   -0.000024
     28          6           0       -6.414943    0.105083   -0.000125
     29          1           0       -5.919299   -2.020640   -0.000102
     30          1           0       -6.622076    2.244830   -0.000108
     31          1           0       -7.480520   -0.071163   -0.000154
     32          7           0       -2.315131    0.472205   -0.000001
     33          7           0       -3.125718   -1.608184   -0.000057
     34          7           0        2.315134    0.472198    0.000061
     35          7           0        3.125722   -1.608181   -0.000041
     36          6           0        3.201485   -3.031304    0.000005
     37          1           0        3.715088   -3.404415   -0.895238
     38          1           0        3.714630   -3.404427    0.895522
     39          1           0        2.186105   -3.442817   -0.000272
     40          6           0       -3.201480   -3.031310    0.000042
     41          1           0       -3.714558   -3.404416    0.895605
     42          1           0       -3.715142   -3.404443   -0.895156
     43          1           0       -2.186097   -3.442817   -0.000301
     44         27           0        0.000011   -1.251539    0.000168
 ---------------------------------------------------------------------

 SCF Done:  E(UPBE1PBE) =  -1212.10345572     A.U. after   19 cycles

 Alpha  occ. eigenvalues --  -14.45794 -14.45794 -14.45323 -14.45323 -10.28330
 Alpha  occ. eigenvalues --  -10.28329 -10.27671 -10.27671 -10.27435 -10.27434
 Alpha  occ. eigenvalues --  -10.27312 -10.27312 -10.25335 -10.25334 -10.24098
 Alpha  occ. eigenvalues --  -10.24098 -10.23915 -10.23915 -10.23475 -10.23474
 Alpha  occ. eigenvalues --  -10.23418 -10.23418 -10.21467 -10.21464 -10.20992
 Alpha  occ. eigenvalues --  -10.19177  -3.82897  -2.34614  -2.34602  -2.30821
 Alpha  occ. eigenvalues --   -1.05965  -1.05902  -0.97196  -0.96875  -0.88338
 Alpha  occ. eigenvalues --   -0.88073  -0.85305  -0.80432  -0.78884  -0.78110
 Alpha  occ. eigenvalues --   -0.77951  -0.75608  -0.75061  -0.73169  -0.71848
 Alpha  occ. eigenvalues --   -0.66627  -0.65201  -0.64504  -0.64254  -0.62704
 Alpha  occ. eigenvalues --   -0.61526  -0.59028  -0.57279  -0.56782  -0.54201
 Alpha  occ. eigenvalues --   -0.53302  -0.52200  -0.49769  -0.49711  -0.49165
 Alpha  occ. eigenvalues --   -0.48668  -0.47877  -0.47498  -0.46679  -0.46272
 Alpha  occ. eigenvalues --   -0.45820  -0.45404  -0.45012  -0.44698  -0.44158
 Alpha  occ. eigenvalues --   -0.42523  -0.41880  -0.41168  -0.38675  -0.38457
 Alpha  occ. eigenvalues --   -0.38382  -0.37546  -0.36960  -0.36848  -0.36688
 Alpha  occ. eigenvalues --   -0.34806  -0.34682  -0.34512  -0.33937  -0.31777
 Alpha  occ. eigenvalues --   -0.28860  -0.26754  -0.25934  -0.24752  -0.24476
 Alpha  occ. eigenvalues --   -0.21406  -0.20816  -0.20443  -0.19948  -0.16358
 Alpha  occ. eigenvalues --   -0.15126  -0.14654
 Alpha virt. eigenvalues --   -0.04398  -0.02466  -0.00611  -0.00137   0.00907
 Alpha virt. eigenvalues --    0.01317   0.01965   0.03230   0.05399   0.05926
 Alpha virt. eigenvalues --    0.06082   0.07337   0.08898   0.09294   0.10085

  Beta  occ. eigenvalues --  -14.45794 -14.45794 -14.45323 -14.45323 -10.28330
  Beta  occ. eigenvalues --  -10.28329 -10.27671 -10.27671 -10.27435 -10.27434
  Beta  occ. eigenvalues --  -10.27312 -10.27312 -10.25335 -10.25334 -10.24098
  Beta  occ. eigenvalues --  -10.24098 -10.23915 -10.23915 -10.23475 -10.23474
  Beta  occ. eigenvalues --  -10.23418 -10.23418 -10.21467 -10.21464 -10.20992
  Beta  occ. eigenvalues --  -10.19177  -3.82897  -2.34614  -2.34602  -2.30821
  Beta  occ. eigenvalues --   -1.05965  -1.05902  -0.97196  -0.96875  -0.88338
  Beta  occ. eigenvalues --   -0.88073  -0.85305  -0.80432  -0.78884  -0.78110
  Beta  occ. eigenvalues --   -0.77951  -0.75608  -0.75061  -0.73169  -0.71848
  Beta  occ. eigenvalues --   -0.66627  -0.65201  -0.64504  -0.64254  -0.62704
  Beta  occ. eigenvalues --   -0.61526  -0.59028  -0.57279  -0.56782  -0.54201
  Beta  occ. eigenvalues --   -0.53302  -0.52200  -0.49769  -0.49711  -0.49165
  Beta  occ. eigenvalues --   -0.48668  -0.47877  -0.47498  -0.46679  -0.46272
  Beta  occ. eigenvalues --   -0.45820  -0.45404  -0.45012  -0.44698  -0.44158
  Beta  occ. eigenvalues --   -0.42523  -0.41880  -0.41168  -0.38675  -0.38457
  Beta  occ. eigenvalues --   -0.38382  -0.37546  -0.36960  -0.36848  -0.36688
  Beta  occ. eigenvalues --   -0.34806  -0.34682  -0.34512  -0.33937  -0.31777
  Beta  occ. eigenvalues --   -0.28860  -0.26754  -0.25934  -0.24752  -0.24476
  Beta  occ. eigenvalues --   -0.21406  -0.20816  -0.20443  -0.19948  -0.16358
  Beta  occ. eigenvalues --   -0.15126  -0.14654
  Beta virt. eigenvalues --   -0.04398  -0.02466  -0.00611  -0.00137   0.00907
  Beta virt. eigenvalues --    0.01317   0.01965   0.03230   0.05399   0.05926
  Beta virt. eigenvalues --    0.06082   0.07337   0.08898   0.09294   0.10085

 Mulliken charges and spin densities:
               1          2
     1  C   -0.177491  -0.000000
     2  C    0.363053   0.000000
     3  C   -0.221642  -0.000000
     4  C   -0.173832   0.000000
     5  C   -0.221648  -0.000000
     6  C    0.363053   0.000000
     7  H    0.154154  -0.000000
     8  H    0.156682  -0.000000
     9  H    0.154155  -0.000000
    10  C    0.313674   0.000000
    11  C    0.408976  -0.000000
    12  C    0.292042   0.000000
    13  C   -0.187893  -0.000000
    14  C   -0.211040  -0.000000
    15  C   -0.189541  -0.000000
    16  H    0.198241   0.000000
    17  C   -0.185136   0.000000
    18  H    0.176848   0.000000
    19  H    0.174532   0.000000
    20  H    0.170938  -0.000000
    21  C    0.313653   0.000000
    22  C    0.408976  -0.000000
    23  C    0.292073   0.000000
    24  C   -0.187879  -0.000000
    25  C   -0.211058  -0.000000
    26  C   -0.189544  -0.000000
    27  H    0.198239   0.000000
    28  C   -0.185136   0.000000
    29  H    0.176847   0.000000
    30  H    0.174529   0.000000
    31  H    0.170940  -0.000000
    32  N   -0.725632  -0.000000
    33  N   -0.580267  -0.000000
    34  N   -0.725635  -0.000000
    35  N   -0.580256  -0.000000
    36  C   -0.402589   0.000000
    37  H    0.202086   0.000000
    38  H    0.202093  -0.000000
    39  H    0.226690  -0.000000
    40  C   -0.402588   0.000000
    41  H    0.202093  -0.000000
    42  H    0.202084   0.000000
    43  H    0.226689  -0.000000
    44  Co  -0.164530   0.000000
 Sum of Mulliken charges =  -0.00000   0.00000

 Dipole moment (field-independent basis, Debye):
    X=              0.0003    Y=             -3.6423    Z=             -0.0002  Tot=              3.6423
 Quadrupole moment (field-independent basis, Debye-Ang):
   XX=           -126.0076   YY=           -134.8680   ZZ=           -172.1860
   XY=              0.0001   XZ=             -0.0006   YZ=              0.0002

 Normal termination of Gaussian 16 at Wed Jul 17 21:09:42 2024.
