 Gaussian 16, Revision C.01,
 Gaussian 16:  ES64L-G16RevC.01  3-Jul-2019

 ----------------------------------------------------------------------
 # pbe1pbe em=gd3bj genecp g09default scf=(xqc,maxcycle=64) force guess
 =read nosymm
 ----------------------------------------------------------------------

 ----------
 Title Card
 ----------
 Symbolic Z-matrix:
 Charge =  0 Multiplicity = 3

                          Input orientation:
 ---------------------------------------------------------------------
 Center     Atomic      Atomic             Coordinates (Angstroms)
 Number     Number       Type             X           Y           Z
 ---------------------------------------------------------------------
      1          6           0        0.000001    0.843782    0.000052
      2          6           0       -1.293025    1.361074    0.000013
      3          6           0       -1.243026    2.754228   -0.000007
      4          6           0       -0.000003    3.396959    0.000012
      5          6           0        1.243042    2.754227    0.000040
      6          6           0        1.293018    1.361074    0.000053
      7          1           0       -2.157651    3.331077   -0.000039
      8          1           0        0.000001    4.478290   -0.000010
      9          1           0        2.157652    3.331074    0.000052
     10          6           0        3.701672    0.583134   -0.000025
     11          6           0        1.928461   -0.906153    0.000137
     12          6           0        4.192011   -0.744984   -0.000092
     13          6           0        4.553495    1.665857   -0.000058
     14          6           0        5.551956   -1.000599   -0.000195
     15          6           0        5.930453    1.407955   -0.000171
     16          1           0        4.172905    2.682559    0.000008
     17          6           0        6.414934    0.105091   -0.000243
     18          1           0        5.919305   -2.020629   -0.000241
     19          1           0        6.622068    2.244833   -0.000196
     20          1           0        7.480529   -0.071152   -0.000329
     21          6           0       -3.701659    0.583127   -0.000037
     22          6           0       -1.928440   -0.906163    0.000108
     23          6           0       -4.192018   -0.745001   -0.000065
     24          6           0       -4.553511    1.665855   -0.000054
     25          6           0       -5.551932   -1.000603   -0.000097
     26          6           0       -5.930441    1.407950   -0.000101
     27          1           0       -4.172904    2.682555   -0.000024
     28          6           0       -6.414943    0.105083   -0.000125
     29          1           0       -5.919299   -2.020640   -0.000102
     30          1           0       -6.622076    2.244830   -0.000108
     31          1           0       -7.480520   -0.071163   -0.000154
     32          7           0       -2.315131    0.472205   -0.000001
     33          7           0       -3.125718   -1.608184   -0.000057
     34          7           0        2.315134    0.472198    0.000061
     35          7           0        3.125722   -1.608181   -0.000041
     36          6           0        3.201485   -3.031304    0.000005
     37          1           0        3.715088   -3.404415   -0.895238
     38          1           0        3.714630   -3.404427    0.895522
     39          1           0        2.186105   -3.442817   -0.000272
     40          6           0       -3.201480   -3.031310    0.000042
     41          1           0       -3.714558   -3.404416    0.895605
     42          1           0       -3.715142   -3.404443   -0.895156
     43          1           0       -2.186097   -3.442817   -0.000301
     44         27           0        0.000011   -1.251539    0.000168
 ---------------------------------------------------------------------

 SCF Done:  E(UPBE1PBE) =  -1212.10503445     A.U. after   33 cycles

 Alpha  occ. eigenvalues --  -14.45218 -14.45217 -14.45146 -14.45146 -10.27935
 Alpha  occ. eigenvalues --  -10.27934 -10.27438 -10.27438 -10.27254 -10.27253
 Alpha  occ. eigenvalues --  -10.27103 -10.27103 -10.26755 -10.26754 -10.23565
 Alpha  occ. eigenvalues --  -10.23564 -10.23520 -10.23519 -10.23030 -10.23029
 Alpha  occ. eigenvalues --  -10.22967 -10.22967 -10.22447 -10.22441 -10.22259
 Alpha  occ. eigenvalues --  -10.21176  -3.93121  -2.44983  -2.43409  -2.43025
 Alpha  occ. eigenvalues --   -1.05795  -1.05716  -0.97254  -0.96867  -0.88219
 Alpha  occ. eigenvalues --   -0.87756  -0.85962  -0.80596  -0.78918  -0.77821
 Alpha  occ. eigenvalues --   -0.77783  -0.75569  -0.74892  -0.73428  -0.72417
 Alpha  occ. eigenvalues --   -0.66848  -0.65344  -0.64305  -0.64248  -0.62755
 Alpha  occ. eigenvalues --   -0.61455  -0.59072  -0.57702  -0.56712  -0.54052
 Alpha  occ. eigenvalues --   -0.53158  -0.52492  -0.49784  -0.49698  -0.49231
 Alpha  occ. eigenvalues --   -0.48992  -0.48084  -0.47212  -0.46764  -0.45991
 Alpha  occ. eigenvalues --   -0.45765  -0.45371  -0.44986  -0.44824  -0.44251
 Alpha  occ. eigenvalues --   -0.42937  -0.41851  -0.41313  -0.39084  -0.38581
 Alpha  occ. eigenvalues --   -0.38504  -0.37391  -0.37358  -0.37192  -0.37029
 Alpha  occ. eigenvalues --   -0.36371  -0.35119  -0.34631  -0.34026  -0.32127
 Alpha  occ. eigenvalues --   -0.30916  -0.30155  -0.26893  -0.26559  -0.26035
 Alpha  occ. eigenvalues --   -0.25971  -0.25746  -0.24569  -0.23970  -0.22929
 Alpha  occ. eigenvalues --   -0.20892  -0.20807  -0.09985
 Alpha virt. eigenvalues --   -0.06224  -0.02872  -0.00287  -0.00053   0.00416
 Alpha virt. eigenvalues --    0.02210   0.02777   0.03455   0.03859   0.05611
 Alpha virt. eigenvalues --    0.06191   0.07643   0.07659   0.09657   0.10195

  Beta  occ. eigenvalues --  -14.45122 -14.45122 -14.45090 -14.45090 -10.27715
  Beta  occ. eigenvalues --  -10.27714 -10.27440 -10.27440 -10.27263 -10.27263
  Beta  occ. eigenvalues --  -10.27139 -10.27139 -10.26646 -10.26645 -10.23506
  Beta  occ. eigenvalues --  -10.23506 -10.23497 -10.23497 -10.23033 -10.23033
  Beta  occ. eigenvalues --  -10.22938 -10.22938 -10.22540 -10.22537 -10.22163
  Beta  occ. eigenvalues --  -10.21841  -3.85038  -2.36137  -2.35734  -2.33503
  Beta  occ. eigenvalues --   -1.05599  -1.05514  -0.97102  -0.96670  -0.88253
  Beta  occ. eigenvalues --   -0.87687  -0.86103  -0.80548  -0.78905  -0.77756
  Beta  occ. eigenvalues --   -0.77741  -0.75453  -0.74696  -0.73438  -0.72722
  Beta  occ. eigenvalues --   -0.66889  -0.65348  -0.64195  -0.64059  -0.62769
  Beta  occ. eigenvalues --   -0.61364  -0.59078  -0.57840  -0.56720  -0.54044
  Beta  occ. eigenvalues --   -0.53149  -0.52488  -0.49326  -0.49253  -0.49204
  Beta  occ. eigenvalues --   -0.49027  -0.48299  -0.47192  -0.46746  -0.45962
  Beta  occ. eigenvalues --   -0.45781  -0.45346  -0.44839  -0.44648  -0.43942
  Beta  occ. eigenvalues --   -0.42992  -0.41827  -0.41325  -0.38852  -0.38662
  Beta  occ. eigenvalues --   -0.38637  -0.37350  -0.37299  -0.36636  -0.36528
  Beta  occ. eigenvalues --   -0.35495  -0.35215  -0.34102  -0.33384  -0.31811
  Beta  occ. eigenvalues --   -0.29571  -0.26634  -0.26611  -0.25961  -0.24728
  Beta  occ. eigenvalues --   -0.23839  -0.22765  -0.21998  -0.20820  -0.19561
  Beta  occ. eigenvalues --   -0.19269
  Beta virt. eigenvalues --   -0.04290  -0.03699  -0.00655  -0.00104  -0.00062
  Beta virt. eigenvalues --    0.01403   0.01859   0.02438   0.03507   0.05402
  Beta virt. eigenvalues --    0.05713   0.06004   0.07943   0.08761   0.09288

 Mulliken charges and spin densities:
               1          2
     1  C   -0.240993  -0.393076
     2  C    0.410129   0.079072
     3  C   -0.223331  -0.061798
     4  C   -0.170937   0.081168
     5  C   -0.223337  -0.061798
     6  C    0.410129   0.079064
     7  H    0.167089  -0.005670
     8  H    0.164785  -0.004010
     9  H    0.167089  -0.005669
    10  C    0.313772  -0.001124
    11  C    0.367961   0.191351
    12  C    0.295104  -0.021892
    13  C   -0.192615   0.014073
    14  C   -0.217319   0.042872
    15  C   -0.191823   0.023907
    16  H    0.191684  -0.000983
    17  C   -0.184377  -0.009164
    18  H    0.173407  -0.002242
    19  H    0.171056  -0.001431
    20  H    0.168374   0.000131
    21  C    0.313749  -0.001123
    22  C    0.367953   0.191394
    23  C    0.295136  -0.021893
    24  C   -0.192600   0.014072
    25  C   -0.217338   0.042873
    26  C   -0.191826   0.023906
    27  H    0.191681  -0.000983
    28  C   -0.184377  -0.009163
    29  H    0.173405  -0.002242
    30  H    0.171053  -0.001431
    31  H    0.168375   0.000131
    32  N   -0.732579  -0.005825
    33  N   -0.583913   0.036793
    34  N   -0.732581  -0.005821
    35  N   -0.583901   0.036785
    36  C   -0.401369  -0.004414
    37  H    0.201707   0.002063
    38  H    0.201711   0.002065
    39  H    0.218611  -0.000850
    40  C   -0.401367  -0.004415
    41  H    0.201709   0.002066
    42  H    0.201705   0.002063
    43  H    0.218608  -0.000850
    44  Co  -0.059398   1.762022
 Sum of Mulliken charges =  -0.00000   2.00000

 Dipole moment (field-independent basis, Debye):
    X=              0.0005    Y=             -3.3065    Z=              0.0000  Tot=              3.3065
 Quadrupole moment (field-independent basis, Debye-Ang):
   XX=           -136.4698   YY=           -133.3684   ZZ=           -173.7701
   XY=             -0.0001   XZ=             -0.0004   YZ=             -0.0007

 Normal termination of Gaussian 16 at Wed Jul 17 21:09:07 2024.
