 Gaussian 16, Revision C.01,
 Gaussian 16:  ES64L-G16RevC.01  3-Jul-2019

 ----------------------------------------------------------------------
 # pbe1pbe em=gd3bj genecp g09default scf=(xqc,maxcycle=64) force guess
 =read nosymm
 ----------------------------------------------------------------------

 ----------
 Title Card
 ----------
 Symbolic Z-matrix:
 Charge =  0 Multiplicity = 1

                          Input orientation:
 ---------------------------------------------------------------------
 Center     Atomic      Atomic             Coordinates (Angstroms)
 Number     Number       Type             X           Y           Z
 ---------------------------------------------------------------------
      1          6           0        0.000008    0.835852    0.000081
      2          6           0       -1.294863    1.359584    0.000009
      3          6           0       -1.249104    2.754427   -0.000009
      4          6           0       -0.000001    3.391849    0.000012
      5          6           0        1.249113    2.754420    0.000039
      6          6           0        1.294847    1.359594    0.000048
      7          1           0       -2.158977    3.332833   -0.000039
      8          1           0        0.000000    4.476542   -0.000010
      9          1           0        2.158981    3.332833    0.000051
     10          6           0        3.698848    0.581744   -0.000028
     11          6           0        1.923816   -0.907864    0.000126
     12          6           0        4.188878   -0.743840   -0.000091
     13          6           0        4.550987    1.668020   -0.000058
     14          6           0        5.550633   -1.000934   -0.000194
     15          6           0        5.933743    1.405801   -0.000171
     16          1           0        4.173658    2.682219    0.000007
     17          6           0        6.413651    0.107128   -0.000243
     18          1           0        5.919335   -2.020322   -0.000241
     19          1           0        6.621983    2.244555   -0.000196
     20          1           0        7.482177   -0.070986   -0.000330
     21          6           0       -3.698821    0.581710   -0.000040
     22          6           0       -1.923805   -0.907873    0.000099
     23          6           0       -4.188896   -0.743845   -0.000065
     24          6           0       -4.551004    1.668045   -0.000054
     25          6           0       -5.550603   -1.000945   -0.000097
     26          6           0       -5.933740    1.405785   -0.000101
     27          1           0       -4.173660    2.682206   -0.000024
     28          6           0       -6.413655    0.107131   -0.000125
     29          1           0       -5.919329   -2.020332   -0.000102
     30          1           0       -6.621989    2.244550   -0.000108
     31          1           0       -7.482171   -0.070998   -0.000154
     32          7           0       -2.314984    0.475860    0.000005
     33          7           0       -3.124626   -1.605696   -0.000050
     34          7           0        2.314990    0.475845    0.000067
     35          7           0        3.124642   -1.605693   -0.000037
     36          6           0        3.200656   -3.031159    0.000009
     37          1           0        3.715072   -3.404040   -0.895030
     38          1           0        3.714612   -3.404053    0.895311
     39          1           0        2.187015   -3.443066   -0.000273
     40          6           0       -3.200652   -3.031166    0.000046
     41          1           0       -3.714539   -3.404041    0.895394
     42          1           0       -3.715125   -3.404068   -0.894947
     43          1           0       -2.187006   -3.443066   -0.000302
     44         27           0        0.000011   -1.250470    0.000155
 ---------------------------------------------------------------------

 SCF Done:  E(UPBE1PBE) =  -1212.10389293     A.U. after   20 cycles

 Alpha  occ. eigenvalues --  -14.45826 -14.45825 -14.45270 -14.45270 -10.28398
 Alpha  occ. eigenvalues --  -10.28398 -10.27663 -10.27663 -10.27434 -10.27433
 Alpha  occ. eigenvalues --  -10.27344 -10.27344 -10.25333 -10.25332 -10.24126
 Alpha  occ. eigenvalues --  -10.24126 -10.23931 -10.23931 -10.23463 -10.23463
 Alpha  occ. eigenvalues --  -10.23404 -10.23404 -10.21429 -10.21426 -10.21041
 Alpha  occ. eigenvalues --  -10.19254  -3.83023  -2.34750  -2.34708  -2.30957
 Alpha  occ. eigenvalues --   -1.05988  -1.05925  -0.97247  -0.96930  -0.88275
 Alpha  occ. eigenvalues --   -0.88012  -0.85147  -0.80468  -0.78888  -0.78013
 Alpha  occ. eigenvalues --   -0.77864  -0.75600  -0.75064  -0.73139  -0.71760
 Alpha  occ. eigenvalues --   -0.66659  -0.65264  -0.64563  -0.64268  -0.62632
 Alpha  occ. eigenvalues --   -0.61513  -0.58985  -0.57274  -0.56740  -0.54177
 Alpha  occ. eigenvalues --   -0.53303  -0.52112  -0.49772  -0.49714  -0.49076
 Alpha  occ. eigenvalues --   -0.48663  -0.47869  -0.47430  -0.46664  -0.46275
 Alpha  occ. eigenvalues --   -0.45829  -0.45416  -0.45034  -0.44711  -0.44176
 Alpha  occ. eigenvalues --   -0.42536  -0.41927  -0.41074  -0.38642  -0.38410
 Alpha  occ. eigenvalues --   -0.38233  -0.37588  -0.36949  -0.36938  -0.36519
 Alpha  occ. eigenvalues --   -0.34988  -0.34763  -0.34479  -0.33961  -0.31707
 Alpha  occ. eigenvalues --   -0.28981  -0.26698  -0.25879  -0.24778  -0.24477
 Alpha  occ. eigenvalues --   -0.21328  -0.21045  -0.20374  -0.20063  -0.16404
 Alpha  occ. eigenvalues --   -0.15222  -0.14786
 Alpha virt. eigenvalues --   -0.04535  -0.02516  -0.00699  -0.00126   0.00825
 Alpha virt. eigenvalues --    0.01303   0.02062   0.03282   0.05377   0.05904
 Alpha virt. eigenvalues --    0.06095   0.07299   0.08902   0.09316   0.10130

  Beta  occ. eigenvalues --  -14.45826 -14.45825 -14.45270 -14.45270 -10.28398
  Beta  occ. eigenvalues --  -10.28398 -10.27663 -10.27663 -10.27434 -10.27433
  Beta  occ. eigenvalues --  -10.27344 -10.27344 -10.25333 -10.25332 -10.24126
  Beta  occ. eigenvalues --  -10.24126 -10.23931 -10.23931 -10.23463 -10.23463
  Beta  occ. eigenvalues --  -10.23404 -10.23404 -10.21429 -10.21426 -10.21041
  Beta  occ. eigenvalues --  -10.19254  -3.83023  -2.34750  -2.34708  -2.30958
  Beta  occ. eigenvalues --   -1.05988  -1.05925  -0.97247  -0.96930  -0.88275
  Beta  occ. eigenvalues --   -0.88012  -0.85147  -0.80468  -0.78888  -0.78013
  Beta  occ. eigenvalues --   -0.77864  -0.75600  -0.75064  -0.73139  -0.71760
  Beta  occ. eigenvalues --   -0.66659  -0.65264  -0.64563  -0.64268  -0.62632
  Beta  occ. eigenvalues --   -0.61513  -0.58985  -0.57274  -0.56740  -0.54177
  Beta  occ. eigenvalues --   -0.53303  -0.52112  -0.49772  -0.49714  -0.49076
  Beta  occ. eigenvalues --   -0.48663  -0.47869  -0.47430  -0.46664  -0.46275
  Beta  occ. eigenvalues --   -0.45829  -0.45416  -0.45034  -0.44711  -0.44176
  Beta  occ. eigenvalues --   -0.42536  -0.41927  -0.41074  -0.38642  -0.38410
  Beta  occ. eigenvalues --   -0.38233  -0.37588  -0.36949  -0.36938  -0.36519
  Beta  occ. eigenvalues --   -0.34988  -0.34763  -0.34479  -0.33961  -0.31707
  Beta  occ. eigenvalues --   -0.28981  -0.26698  -0.25879  -0.24778  -0.24477
  Beta  occ. eigenvalues --   -0.21328  -0.21045  -0.20374  -0.20063  -0.16404
  Beta  occ. eigenvalues --   -0.15222  -0.14786
  Beta virt. eigenvalues --   -0.04535  -0.02516  -0.00699  -0.00126   0.00825
  Beta virt. eigenvalues --    0.01303   0.02062   0.03282   0.05377   0.05904
  Beta virt. eigenvalues --    0.06095   0.07299   0.08902   0.09316   0.10130

 Mulliken charges and spin densities:
               1          2
     1  C   -0.176181   0.000001
     2  C    0.357055  -0.000000
     3  C   -0.217965   0.000000
     4  C   -0.178096  -0.000000
     5  C   -0.217972   0.000000
     6  C    0.357068  -0.000000
     7  H    0.155337   0.000000
     8  H    0.155283   0.000000
     9  H    0.155338   0.000000
    10  C    0.313614  -0.000000
    11  C    0.406440   0.000000
    12  C    0.293944  -0.000000
    13  C   -0.189818   0.000000
    14  C   -0.211693   0.000000
    15  C   -0.188297   0.000000
    16  H    0.198005  -0.000000
    17  C   -0.184491  -0.000000
    18  H    0.176935  -0.000000
    19  H    0.174447  -0.000000
    20  H    0.170660   0.000000
    21  C    0.313561  -0.000000
    22  C    0.406442   0.000000
    23  C    0.293985  -0.000000
    24  C   -0.189796   0.000000
    25  C   -0.211716   0.000000
    26  C   -0.188292   0.000000
    27  H    0.198003  -0.000000
    28  C   -0.184492  -0.000000
    29  H    0.176938  -0.000000
    30  H    0.174445  -0.000000
    31  H    0.170661   0.000000
    32  N   -0.724046   0.000000
    33  N   -0.581975   0.000000
    34  N   -0.724070   0.000000
    35  N   -0.581962   0.000000
    36  C   -0.402340   0.000000
    37  H    0.202279   0.000000
    38  H    0.202289   0.000000
    39  H    0.226750   0.000000
    40  C   -0.402338   0.000000
    41  H    0.202290   0.000000
    42  H    0.202279   0.000000
    43  H    0.226748   0.000000
    44  Co  -0.155257  -0.000002
 Sum of Mulliken charges =  -0.00000   0.00000

 Dipole moment (field-independent basis, Debye):
    X=             -0.0000    Y=             -3.7186    Z=             -0.0002  Tot=              3.7186
 Quadrupole moment (field-independent basis, Debye-Ang):
   XX=           -126.3050   YY=           -134.8163   ZZ=           -172.2054
   XY=              0.0005   XZ=             -0.0005   YZ=              0.0002

 Normal termination of Gaussian 16 at Wed Jul 17 21:11:11 2024.
