 Gaussian 16, Revision C.01,
 Gaussian 16:  ES64L-G16RevC.01  3-Jul-2019

 ----------------------------------------------------------------------
 # pbe1pbe em=gd3bj genecp g09default scf=(xqc,maxcycle=64) force guess
 =read nosymm
 ----------------------------------------------------------------------

 ----------
 Title Card
 ----------
 Symbolic Z-matrix:
 Charge =  0 Multiplicity = 3

                          Input orientation:
 ---------------------------------------------------------------------
 Center     Atomic      Atomic             Coordinates (Angstroms)
 Number     Number       Type             X           Y           Z
 ---------------------------------------------------------------------
      1          6           0        0.000008    0.835852    0.000081
      2          6           0       -1.294863    1.359584    0.000009
      3          6           0       -1.249104    2.754427   -0.000009
      4          6           0       -0.000001    3.391849    0.000012
      5          6           0        1.249113    2.754420    0.000039
      6          6           0        1.294847    1.359594    0.000048
      7          1           0       -2.158977    3.332833   -0.000039
      8          1           0        0.000000    4.476542   -0.000010
      9          1           0        2.158981    3.332833    0.000051
     10          6           0        3.698848    0.581744   -0.000028
     11          6           0        1.923816   -0.907864    0.000126
     12          6           0        4.188878   -0.743840   -0.000091
     13          6           0        4.550987    1.668020   -0.000058
     14          6           0        5.550633   -1.000934   -0.000194
     15          6           0        5.933743    1.405801   -0.000171
     16          1           0        4.173658    2.682219    0.000007
     17          6           0        6.413651    0.107128   -0.000243
     18          1           0        5.919335   -2.020322   -0.000241
     19          1           0        6.621983    2.244555   -0.000196
     20          1           0        7.482177   -0.070986   -0.000330
     21          6           0       -3.698821    0.581710   -0.000040
     22          6           0       -1.923805   -0.907873    0.000099
     23          6           0       -4.188896   -0.743845   -0.000065
     24          6           0       -4.551004    1.668045   -0.000054
     25          6           0       -5.550603   -1.000945   -0.000097
     26          6           0       -5.933740    1.405785   -0.000101
     27          1           0       -4.173660    2.682206   -0.000024
     28          6           0       -6.413655    0.107131   -0.000125
     29          1           0       -5.919329   -2.020332   -0.000102
     30          1           0       -6.621989    2.244550   -0.000108
     31          1           0       -7.482171   -0.070998   -0.000154
     32          7           0       -2.314984    0.475860    0.000005
     33          7           0       -3.124626   -1.605696   -0.000050
     34          7           0        2.314990    0.475845    0.000067
     35          7           0        3.124642   -1.605693   -0.000037
     36          6           0        3.200656   -3.031159    0.000009
     37          1           0        3.715072   -3.404040   -0.895030
     38          1           0        3.714612   -3.404053    0.895311
     39          1           0        2.187015   -3.443066   -0.000273
     40          6           0       -3.200652   -3.031166    0.000046
     41          1           0       -3.714539   -3.404041    0.895394
     42          1           0       -3.715125   -3.404068   -0.894947
     43          1           0       -2.187006   -3.443066   -0.000302
     44         27           0        0.000011   -1.250470    0.000155
 ---------------------------------------------------------------------

 SCF Done:  E(UPBE1PBE) =  -1212.10541695     A.U. after   25 cycles

 Alpha  occ. eigenvalues --  -14.45252 -14.45251 -14.45089 -14.45089 -10.28006
 Alpha  occ. eigenvalues --  -10.28005 -10.27428 -10.27427 -10.27289 -10.27289
 Alpha  occ. eigenvalues --  -10.27099 -10.27099 -10.26743 -10.26742 -10.23590
 Alpha  occ. eigenvalues --  -10.23590 -10.23534 -10.23533 -10.23016 -10.23016
 Alpha  occ. eigenvalues --  -10.22951 -10.22951 -10.22405 -10.22392 -10.22304
 Alpha  occ. eigenvalues --  -10.21198  -3.93230  -2.45131  -2.43496  -2.43101
 Alpha  occ. eigenvalues --   -1.05820  -1.05741  -0.97302  -0.96923  -0.88144
 Alpha  occ. eigenvalues --   -0.87695  -0.85797  -0.80615  -0.78930  -0.77727
 Alpha  occ. eigenvalues --   -0.77690  -0.75555  -0.74897  -0.73401  -0.72315
 Alpha  occ. eigenvalues --   -0.66877  -0.65411  -0.64365  -0.64258  -0.62697
 Alpha  occ. eigenvalues --   -0.61444  -0.59011  -0.57655  -0.56704  -0.54024
 Alpha  occ. eigenvalues --   -0.53155  -0.52405  -0.49790  -0.49704  -0.49135
 Alpha  occ. eigenvalues --   -0.48990  -0.48118  -0.47148  -0.46717  -0.45992
 Alpha  occ. eigenvalues --   -0.45769  -0.45365  -0.44994  -0.44852  -0.44269
 Alpha  occ. eigenvalues --   -0.42911  -0.41900  -0.41268  -0.39041  -0.38590
 Alpha  occ. eigenvalues --   -0.38324  -0.37566  -0.37342  -0.37029  -0.37018
 Alpha  occ. eigenvalues --   -0.36466  -0.35189  -0.34586  -0.34055  -0.32078
 Alpha  occ. eigenvalues --   -0.31026  -0.30272  -0.26867  -0.26611  -0.26159
 Alpha  occ. eigenvalues --   -0.25982  -0.25886  -0.24572  -0.24032  -0.22912
 Alpha  occ. eigenvalues --   -0.20828  -0.20668  -0.10120
 Alpha virt. eigenvalues --   -0.06271  -0.02970  -0.00301  -0.00050   0.00327
 Alpha virt. eigenvalues --    0.02312   0.02818   0.03490   0.03853   0.05590
 Alpha virt. eigenvalues --    0.06152   0.07658   0.07689   0.09726   0.10249

  Beta  occ. eigenvalues --  -14.45123 -14.45123 -14.45066 -14.45066 -10.27780
  Beta  occ. eigenvalues --  -10.27779 -10.27430 -10.27429 -10.27298 -10.27298
  Beta  occ. eigenvalues --  -10.27136 -10.27136 -10.26631 -10.26630 -10.23530
  Beta  occ. eigenvalues --  -10.23530 -10.23511 -10.23511 -10.23020 -10.23020
  Beta  occ. eigenvalues --  -10.22921 -10.22921 -10.22493 -10.22489 -10.22210
  Beta  occ. eigenvalues --  -10.21850  -3.85211  -2.36312  -2.35936  -2.33646
  Beta  occ. eigenvalues --   -1.05622  -1.05537  -0.97145  -0.96723  -0.88168
  Beta  occ. eigenvalues --   -0.87625  -0.85933  -0.80563  -0.78915  -0.77661
  Beta  occ. eigenvalues --   -0.77646  -0.75433  -0.74697  -0.73413  -0.72607
  Beta  occ. eigenvalues --   -0.66918  -0.65404  -0.64206  -0.64114  -0.62705
  Beta  occ. eigenvalues --   -0.61353  -0.59011  -0.57785  -0.56705  -0.54014
  Beta  occ. eigenvalues --   -0.53144  -0.52398  -0.49328  -0.49256  -0.49093
  Beta  occ. eigenvalues --   -0.49022  -0.48354  -0.47128  -0.46677  -0.45960
  Beta  occ. eigenvalues --   -0.45784  -0.45335  -0.44868  -0.44656  -0.43962
  Beta  occ. eigenvalues --   -0.42957  -0.41876  -0.41281  -0.38799  -0.38655
  Beta  occ. eigenvalues --   -0.38465  -0.37320  -0.37129  -0.36655  -0.36625
  Beta  occ. eigenvalues --   -0.35659  -0.35284  -0.34046  -0.33402  -0.31762
  Beta  occ. eigenvalues --   -0.29682  -0.26806  -0.26553  -0.25899  -0.24777
  Beta  occ. eigenvalues --   -0.23827  -0.22924  -0.21941  -0.20701  -0.19591
  Beta  occ. eigenvalues --   -0.19392
  Beta virt. eigenvalues --   -0.04416  -0.03788  -0.00699  -0.00182  -0.00138
  Beta virt. eigenvalues --    0.01376   0.01813   0.02505   0.03576   0.05396
  Beta virt. eigenvalues --    0.05683   0.05980   0.07905   0.08766   0.09332

 Mulliken charges and spin densities:
               1          2
     1  C   -0.240399  -0.385548
     2  C    0.403934   0.079979
     3  C   -0.219274  -0.063034
     4  C   -0.175356   0.083228
     5  C   -0.219282  -0.063033
     6  C    0.403945   0.079971
     7  H    0.167914  -0.005115
     8  H    0.163431  -0.004156
     9  H    0.167914  -0.005116
    10  C    0.313604  -0.000667
    11  C    0.365769   0.194644
    12  C    0.296965  -0.022253
    13  C   -0.194556   0.013746
    14  C   -0.218014   0.043926
    15  C   -0.190560   0.024502
    16  H    0.191520  -0.000959
    17  C   -0.183689  -0.009723
    18  H    0.173459  -0.002287
    19  H    0.170957  -0.001461
    20  H    0.168076   0.000155
    21  C    0.313550  -0.000669
    22  C    0.365766   0.194681
    23  C    0.297008  -0.022252
    24  C   -0.194534   0.013750
    25  C   -0.218038   0.043925
    26  C   -0.190555   0.024493
    27  H    0.191517  -0.000959
    28  C   -0.183690  -0.009718
    29  H    0.173461  -0.002287
    30  H    0.170954  -0.001460
    31  H    0.168077   0.000155
    32  N   -0.730980  -0.006381
    33  N   -0.585675   0.037151
    34  N   -0.731005  -0.006372
    35  N   -0.585660   0.037137
    36  C   -0.401114  -0.004439
    37  H    0.201932   0.002049
    38  H    0.201940   0.002052
    39  H    0.218577  -0.000831
    40  C   -0.401111  -0.004441
    41  H    0.201939   0.002053
    42  H    0.201931   0.002049
    43  H    0.218574  -0.000831
    44  Co  -0.049222   1.744349
 Sum of Mulliken charges =  -0.00000   2.00000

 Dipole moment (field-independent basis, Debye):
    X=              0.0002    Y=             -3.3958    Z=             -0.0001  Tot=              3.3958
 Quadrupole moment (field-independent basis, Debye-Ang):
   XX=           -136.7744   YY=           -133.2928   ZZ=           -173.7567
   XY=              0.0002   XZ=             -0.0004   YZ=             -0.0002

 Normal termination of Gaussian 16 at Wed Jul 17 21:10:31 2024.
