 Gaussian 16, Revision C.01,
 Gaussian 16:  ES64L-G16RevC.01  3-Jul-2019

 ----------------------------------------------------------------------
 # pbe1pbe em=gd3bj genecp g09default scf=(xqc,maxcycle=64) force guess
 =read nosymm
 ----------------------------------------------------------------------

 ----------
 Title Card
 ----------
 Symbolic Z-matrix:
 Charge =  0 Multiplicity = 1

                          Input orientation:
 ---------------------------------------------------------------------
 Center     Atomic      Atomic             Coordinates (Angstroms)
 Number     Number       Type             X           Y           Z
 ---------------------------------------------------------------------
      1          6           0       -0.000000    0.819028    0.000102
      2          6           0       -1.286934    1.359757    0.000010
      3          6           0       -1.246258    2.754602   -0.000011
      4          6           0        0.000001    3.397236    0.000012
      5          6           0        1.246265    2.754603    0.000037
      6          6           0        1.286934    1.359755    0.000049
      7          1           0       -2.158971    3.333959   -0.000039
      8          1           0        0.000001    4.483412   -0.000010
      9          1           0        2.158975    3.333958    0.000051
     10          6           0        3.695620    0.583385   -0.000029
     11          6           0        1.920229   -0.908238    0.000125
     12          6           0        4.187541   -0.744095   -0.000092
     13          6           0        4.548944    1.665236   -0.000058
     14          6           0        5.550379   -0.999877   -0.000196
     15          6           0        5.931001    1.406514   -0.000171
     16          1           0        4.174011    2.682956    0.000008
     17          6           0        6.414160    0.104673   -0.000243
     18          1           0        5.921373   -2.020239   -0.000241
     19          1           0        6.620630    2.243461   -0.000196
     20          1           0        7.483497   -0.070558   -0.000329
     21          6           0       -3.695619    0.583388   -0.000041
     22          6           0       -1.920213   -0.908243    0.000094
     23          6           0       -4.187534   -0.744106   -0.000066
     24          6           0       -4.548945    1.665223   -0.000054
     25          6           0       -5.550371   -0.999882   -0.000098
     26          6           0       -5.931000    1.406511   -0.000100
     27          1           0       -4.174011    2.682953   -0.000024
     28          6           0       -6.414158    0.104661   -0.000125
     29          1           0       -5.921365   -2.020247   -0.000102
     30          1           0       -6.620634    2.243453   -0.000108
     31          1           0       -7.483492   -0.070570   -0.000154
     32          7           0       -2.310052    0.471644    0.000009
     33          7           0       -3.120493   -1.604553   -0.000046
     34          7           0        2.310055    0.471646    0.000072
     35          7           0        3.120498   -1.604547   -0.000034
     36          6           0        3.199534   -3.030062    0.000008
     37          1           0        3.715552   -3.402299   -0.894489
     38          1           0        3.715093   -3.402310    0.894769
     39          1           0        2.185918   -3.441778   -0.000272
     40          6           0       -3.199527   -3.030067    0.000045
     41          1           0       -3.715020   -3.402299    0.894852
     42          1           0       -3.715607   -3.402328   -0.894407
     43          1           0       -2.185910   -3.441779   -0.000301
     44         27           0        0.000008   -1.249861    0.000134
 ---------------------------------------------------------------------

 SCF Done:  E(UPBE1PBE) =  -1212.11116243     A.U. after   19 cycles

 Alpha  occ. eigenvalues --  -14.45802 -14.45802 -14.45246 -14.45246 -10.28340
 Alpha  occ. eigenvalues --  -10.28339 -10.27648 -10.27648 -10.27446 -10.27445
 Alpha  occ. eigenvalues --  -10.27318 -10.27318 -10.25275 -10.25274 -10.24137
 Alpha  occ. eigenvalues --  -10.24137 -10.23927 -10.23927 -10.23480 -10.23480
 Alpha  occ. eigenvalues --  -10.23427 -10.23427 -10.21464 -10.21460 -10.21101
 Alpha  occ. eigenvalues --  -10.19153  -3.83060  -2.34778  -2.34770  -2.30983
 Alpha  occ. eigenvalues --   -1.05950  -1.05886  -0.97141  -0.96814  -0.88257
 Alpha  occ. eigenvalues --   -0.87998  -0.85112  -0.80371  -0.78820  -0.78009
 Alpha  occ. eigenvalues --   -0.77889  -0.75598  -0.75048  -0.73063  -0.71815
 Alpha  occ. eigenvalues --   -0.66599  -0.65227  -0.64562  -0.64169  -0.62656
 Alpha  occ. eigenvalues --   -0.61470  -0.58946  -0.57254  -0.56687  -0.54161
 Alpha  occ. eigenvalues --   -0.53270  -0.52071  -0.49734  -0.49676  -0.49061
 Alpha  occ. eigenvalues --   -0.48441  -0.47888  -0.47476  -0.46673  -0.46211
 Alpha  occ. eigenvalues --   -0.45789  -0.45346  -0.44989  -0.44647  -0.44111
 Alpha  occ. eigenvalues --   -0.42478  -0.41920  -0.41123  -0.38604  -0.38425
 Alpha  occ. eigenvalues --   -0.38342  -0.37576  -0.36903  -0.36804  -0.36630
 Alpha  occ. eigenvalues --   -0.35070  -0.34680  -0.34474  -0.33922  -0.31688
 Alpha  occ. eigenvalues --   -0.29005  -0.26713  -0.25932  -0.24749  -0.24443
 Alpha  occ. eigenvalues --   -0.21444  -0.21348  -0.20460  -0.20108  -0.16415
 Alpha  occ. eigenvalues --   -0.15265  -0.14808
 Alpha virt. eigenvalues --   -0.04492  -0.02506  -0.00654  -0.00096   0.00902
 Alpha virt. eigenvalues --    0.01314   0.01986   0.03265   0.05366   0.05914
 Alpha virt. eigenvalues --    0.06152   0.07327   0.08930   0.09302   0.10103

  Beta  occ. eigenvalues --  -14.45802 -14.45802 -14.45246 -14.45246 -10.28340
  Beta  occ. eigenvalues --  -10.28339 -10.27648 -10.27648 -10.27446 -10.27445
  Beta  occ. eigenvalues --  -10.27318 -10.27318 -10.25275 -10.25274 -10.24137
  Beta  occ. eigenvalues --  -10.24137 -10.23927 -10.23927 -10.23480 -10.23480
  Beta  occ. eigenvalues --  -10.23427 -10.23427 -10.21464 -10.21460 -10.21101
  Beta  occ. eigenvalues --  -10.19153  -3.83060  -2.34778  -2.34770  -2.30983
  Beta  occ. eigenvalues --   -1.05950  -1.05886  -0.97141  -0.96814  -0.88257
  Beta  occ. eigenvalues --   -0.87998  -0.85112  -0.80371  -0.78820  -0.78009
  Beta  occ. eigenvalues --   -0.77889  -0.75598  -0.75048  -0.73063  -0.71815
  Beta  occ. eigenvalues --   -0.66599  -0.65227  -0.64562  -0.64169  -0.62656
  Beta  occ. eigenvalues --   -0.61470  -0.58946  -0.57254  -0.56687  -0.54161
  Beta  occ. eigenvalues --   -0.53270  -0.52071  -0.49734  -0.49676  -0.49061
  Beta  occ. eigenvalues --   -0.48441  -0.47888  -0.47476  -0.46673  -0.46211
  Beta  occ. eigenvalues --   -0.45789  -0.45346  -0.44989  -0.44647  -0.44111
  Beta  occ. eigenvalues --   -0.42478  -0.41920  -0.41123  -0.38604  -0.38425
  Beta  occ. eigenvalues --   -0.38342  -0.37576  -0.36903  -0.36804  -0.36630
  Beta  occ. eigenvalues --   -0.35070  -0.34680  -0.34474  -0.33922  -0.31688
  Beta  occ. eigenvalues --   -0.29005  -0.26713  -0.25932  -0.24749  -0.24443
  Beta  occ. eigenvalues --   -0.21444  -0.21348  -0.20460  -0.20108  -0.16415
  Beta  occ. eigenvalues --   -0.15265  -0.14808
  Beta virt. eigenvalues --   -0.04492  -0.02506  -0.00654  -0.00096   0.00902
  Beta virt. eigenvalues --    0.01314   0.01986   0.03265   0.05366   0.05914
  Beta virt. eigenvalues --    0.06152   0.07327   0.08930   0.09302   0.10103

 Mulliken charges and spin densities:
               1          2
     1  C   -0.177348   0.000000
     2  C    0.352415  -0.000000
     3  C   -0.215231   0.000000
     4  C   -0.181059  -0.000000
     5  C   -0.215231   0.000000
     6  C    0.352412  -0.000000
     7  H    0.156019   0.000000
     8  H    0.156160   0.000000
     9  H    0.156019   0.000000
    10  C    0.315788  -0.000000
    11  C    0.408112   0.000000
    12  C    0.291988  -0.000000
    13  C   -0.190511   0.000000
    14  C   -0.210619   0.000000
    15  C   -0.188552   0.000000
    16  H    0.197644  -0.000000
    17  C   -0.184827   0.000000
    18  H    0.176748  -0.000000
    19  H    0.174471  -0.000000
    20  H    0.170962  -0.000000
    21  C    0.315797  -0.000000
    22  C    0.408112   0.000000
    23  C    0.291989  -0.000000
    24  C   -0.190515   0.000000
    25  C   -0.210620   0.000000
    26  C   -0.188553   0.000000
    27  H    0.197643  -0.000000
    28  C   -0.184828   0.000000
    29  H    0.176746  -0.000000
    30  H    0.174472  -0.000000
    31  H    0.170962  -0.000000
    32  N   -0.725344   0.000000
    33  N   -0.582926   0.000000
    34  N   -0.725337   0.000000
    35  N   -0.582924   0.000000
    36  C   -0.402024   0.000000
    37  H    0.202155   0.000000
    38  H    0.202165  -0.000000
    39  H    0.226271   0.000000
    40  C   -0.402024   0.000000
    41  H    0.202165  -0.000000
    42  H    0.202154   0.000000
    43  H    0.226270   0.000000
    44  Co  -0.147164  -0.000000
 Sum of Mulliken charges =  -0.00000  -0.00000

 Dipole moment (field-independent basis, Debye):
    X=              0.0002    Y=             -3.6776    Z=             -0.0002  Tot=              3.6776
 Quadrupole moment (field-independent basis, Debye-Ang):
   XX=           -126.2290   YY=           -134.7583   ZZ=           -172.2252
   XY=             -0.0002   XZ=             -0.0005   YZ=              0.0003

 Normal termination of Gaussian 16 at Wed Jul 17 21:12:44 2024.
