 Gaussian 16, Revision C.01,
 Gaussian 16:  ES64L-G16RevC.01  3-Jul-2019

 ----------------------------------------------------------------------
 # pbe1pbe em=gd3bj genecp g09default scf=(xqc,maxcycle=64) force guess
 =read nosymm
 ----------------------------------------------------------------------

 ----------
 Title Card
 ----------
 Symbolic Z-matrix:
 Charge =  0 Multiplicity = 3

                          Input orientation:
 ---------------------------------------------------------------------
 Center     Atomic      Atomic             Coordinates (Angstroms)
 Number     Number       Type             X           Y           Z
 ---------------------------------------------------------------------
      1          6           0       -0.000000    0.819028    0.000102
      2          6           0       -1.286934    1.359757    0.000010
      3          6           0       -1.246258    2.754602   -0.000011
      4          6           0        0.000001    3.397236    0.000012
      5          6           0        1.246265    2.754603    0.000037
      6          6           0        1.286934    1.359755    0.000049
      7          1           0       -2.158971    3.333959   -0.000039
      8          1           0        0.000001    4.483412   -0.000010
      9          1           0        2.158975    3.333958    0.000051
     10          6           0        3.695620    0.583385   -0.000029
     11          6           0        1.920229   -0.908238    0.000125
     12          6           0        4.187541   -0.744095   -0.000092
     13          6           0        4.548944    1.665236   -0.000058
     14          6           0        5.550379   -0.999877   -0.000196
     15          6           0        5.931001    1.406514   -0.000171
     16          1           0        4.174011    2.682956    0.000008
     17          6           0        6.414160    0.104673   -0.000243
     18          1           0        5.921373   -2.020239   -0.000241
     19          1           0        6.620630    2.243461   -0.000196
     20          1           0        7.483497   -0.070558   -0.000329
     21          6           0       -3.695619    0.583388   -0.000041
     22          6           0       -1.920213   -0.908243    0.000094
     23          6           0       -4.187534   -0.744106   -0.000066
     24          6           0       -4.548945    1.665223   -0.000054
     25          6           0       -5.550371   -0.999882   -0.000098
     26          6           0       -5.931000    1.406511   -0.000100
     27          1           0       -4.174011    2.682953   -0.000024
     28          6           0       -6.414158    0.104661   -0.000125
     29          1           0       -5.921365   -2.020247   -0.000102
     30          1           0       -6.620634    2.243453   -0.000108
     31          1           0       -7.483492   -0.070570   -0.000154
     32          7           0       -2.310052    0.471644    0.000009
     33          7           0       -3.120493   -1.604553   -0.000046
     34          7           0        2.310055    0.471646    0.000072
     35          7           0        3.120498   -1.604547   -0.000034
     36          6           0        3.199534   -3.030062    0.000008
     37          1           0        3.715552   -3.402299   -0.894489
     38          1           0        3.715093   -3.402310    0.894769
     39          1           0        2.185918   -3.441778   -0.000272
     40          6           0       -3.199527   -3.030067    0.000045
     41          1           0       -3.715020   -3.402299    0.894852
     42          1           0       -3.715607   -3.402328   -0.894407
     43          1           0       -2.185910   -3.441779   -0.000301
     44         27           0        0.000008   -1.249861    0.000134
 ---------------------------------------------------------------------

 SCF Done:  E(UPBE1PBE) =  -1212.11094852     A.U. after   32 cycles

 Alpha  occ. eigenvalues --  -14.45252 -14.45252 -14.45062 -14.45062 -10.27981
 Alpha  occ. eigenvalues --  -10.27981 -10.27413 -10.27413 -10.27285 -10.27285
 Alpha  occ. eigenvalues --  -10.27118 -10.27118 -10.26645 -10.26644 -10.23607
 Alpha  occ. eigenvalues --  -10.23606 -10.23525 -10.23525 -10.23039 -10.23039
 Alpha  occ. eigenvalues --  -10.22969 -10.22969 -10.22409 -10.22392 -10.22327
 Alpha  occ. eigenvalues --  -10.21039  -3.93348  -2.45277  -2.43607  -2.43163
 Alpha  occ. eigenvalues --   -1.05788  -1.05708  -0.97201  -0.96811  -0.88117
 Alpha  occ. eigenvalues --   -0.87681  -0.85750  -0.80513  -0.78874  -0.77721
 Alpha  occ. eigenvalues --   -0.77707  -0.75552  -0.74894  -0.73328  -0.72360
 Alpha  occ. eigenvalues --   -0.66810  -0.65362  -0.64370  -0.64169  -0.62722
 Alpha  occ. eigenvalues --   -0.61405  -0.58963  -0.57662  -0.56616  -0.54001
 Alpha  occ. eigenvalues --   -0.53132  -0.52350  -0.49765  -0.49681  -0.49135
 Alpha  occ. eigenvalues --   -0.48760  -0.48117  -0.47196  -0.46763  -0.45943
 Alpha  occ. eigenvalues --   -0.45714  -0.45314  -0.44931  -0.44790  -0.44207
 Alpha  occ. eigenvalues --   -0.42840  -0.41909  -0.41312  -0.39000  -0.38564
 Alpha  occ. eigenvalues --   -0.38421  -0.37642  -0.37378  -0.37142  -0.36969
 Alpha  occ. eigenvalues --   -0.36353  -0.35073  -0.34591  -0.34029  -0.32048
 Alpha  occ. eigenvalues --   -0.31188  -0.30355  -0.26881  -0.26648  -0.26432
 Alpha  occ. eigenvalues --   -0.26047  -0.26018  -0.24543  -0.24101  -0.22910
 Alpha  occ. eigenvalues --   -0.20852  -0.20700  -0.10098
 Alpha virt. eigenvalues --   -0.06302  -0.02904  -0.00238  -0.00033   0.00398
 Alpha virt. eigenvalues --    0.02237   0.02783   0.03544   0.03844   0.05589
 Alpha virt. eigenvalues --    0.06183   0.07665   0.07711   0.09695   0.10221

  Beta  occ. eigenvalues --  -14.45123 -14.45123 -14.45036 -14.45036 -10.27758
  Beta  occ. eigenvalues --  -10.27757 -10.27415 -10.27415 -10.27295 -10.27294
  Beta  occ. eigenvalues --  -10.27155 -10.27155 -10.26534 -10.26533 -10.23547
  Beta  occ. eigenvalues --  -10.23547 -10.23503 -10.23503 -10.23045 -10.23045
  Beta  occ. eigenvalues --  -10.22937 -10.22937 -10.22492 -10.22487 -10.22232
  Beta  occ. eigenvalues --  -10.21648  -3.85497  -2.36672  -2.36237  -2.33841
  Beta  occ. eigenvalues --   -1.05588  -1.05502  -0.97039  -0.96609  -0.88128
  Beta  occ. eigenvalues --   -0.87610  -0.85866  -0.80458  -0.78857  -0.77661
  Beta  occ. eigenvalues --   -0.77654  -0.75424  -0.74694  -0.73338  -0.72622
  Beta  occ. eigenvalues --   -0.66849  -0.65302  -0.64141  -0.64122  -0.62723
  Beta  occ. eigenvalues --   -0.61310  -0.58960  -0.57770  -0.56615  -0.53983
  Beta  occ. eigenvalues --   -0.53118  -0.52336  -0.49304  -0.49233  -0.49104
  Beta  occ. eigenvalues --   -0.48788  -0.48298  -0.47173  -0.46731  -0.45913
  Beta  occ. eigenvalues --   -0.45724  -0.45284  -0.44800  -0.44586  -0.43898
  Beta  occ. eigenvalues --   -0.42884  -0.41885  -0.41324  -0.38744  -0.38613
  Beta  occ. eigenvalues --   -0.38554  -0.37364  -0.37244  -0.36570  -0.36526
  Beta  occ. eigenvalues --   -0.35764  -0.35156  -0.34049  -0.33377  -0.31723
  Beta  occ. eigenvalues --   -0.29743  -0.27175  -0.26554  -0.25933  -0.24817
  Beta  occ. eigenvalues --   -0.23804  -0.23144  -0.21964  -0.20720  -0.19696
  Beta  occ. eigenvalues --   -0.19543
  Beta virt. eigenvalues --   -0.04420  -0.03896  -0.00683  -0.00249  -0.00072
  Beta virt. eigenvalues --    0.01352   0.01787   0.02430   0.03537   0.05387
  Beta virt. eigenvalues --    0.05692   0.05979   0.07924   0.08800   0.09303

 Mulliken charges and spin densities:
               1          2
     1  C   -0.242596  -0.358059
     2  C    0.398659   0.078862
     3  C   -0.216341  -0.062553
     4  C   -0.178261   0.084640
     5  C   -0.216341  -0.062552
     6  C    0.398655   0.078860
     7  H    0.168096  -0.004378
     8  H    0.164061  -0.004190
     9  H    0.168095  -0.004378
    10  C    0.315911  -0.000722
    11  C    0.368127   0.192866
    12  C    0.294968  -0.022407
    13  C   -0.195237   0.013801
    14  C   -0.216911   0.043737
    15  C   -0.190821   0.024776
    16  H    0.191275  -0.000961
    17  C   -0.184069  -0.009627
    18  H    0.173240  -0.002280
    19  H    0.171013  -0.001476
    20  H    0.168380   0.000151
    21  C    0.315919  -0.000721
    22  C    0.368123   0.192886
    23  C    0.294969  -0.022408
    24  C   -0.195240   0.013800
    25  C   -0.216912   0.043740
    26  C   -0.190822   0.024779
    27  H    0.191273  -0.000961
    28  C   -0.184070  -0.009629
    29  H    0.173238  -0.002281
    30  H    0.171012  -0.001477
    31  H    0.168379   0.000151
    32  N   -0.732166  -0.005377
    33  N   -0.586696   0.037358
    34  N   -0.732158  -0.005377
    35  N   -0.586695   0.037357
    36  C   -0.400758  -0.004449
    37  H    0.201956   0.002049
    38  H    0.201964   0.002053
    39  H    0.217851  -0.000810
    40  C   -0.400758  -0.004449
    41  H    0.201963   0.002053
    42  H    0.201955   0.002049
    43  H    0.217850  -0.000810
    44  Co  -0.040082   1.716365
 Sum of Mulliken charges =  -0.00000   2.00000

 Dipole moment (field-independent basis, Debye):
    X=              0.0003    Y=             -3.4052    Z=             -0.0003  Tot=              3.4052
 Quadrupole moment (field-independent basis, Debye-Ang):
   XX=           -136.6521   YY=           -133.2185   ZZ=           -173.7929
   XY=             -0.0002   XZ=             -0.0004   YZ=              0.0002

 Normal termination of Gaussian 16 at Wed Jul 17 21:12:05 2024.
