 Gaussian 16, Revision C.01,
 Gaussian 16:  ES64L-G16RevC.01  3-Jul-2019

 ----------------------------------------------------------------------
 # pbe1pbe em=gd3bj genecp g09default scf=(xqc,maxcycle=64) force guess
 =read nosymm
 ----------------------------------------------------------------------

 ----------
 Title Card
 ----------
 Symbolic Z-matrix:
 Charge =  0 Multiplicity = 1

                          Input orientation:
 ---------------------------------------------------------------------
 Center     Atomic      Atomic             Coordinates (Angstroms)
 Number     Number       Type             X           Y           Z
 ---------------------------------------------------------------------
      1          6           0       -0.000001    0.816811    0.000104
      2          6           0       -1.286233    1.361276    0.000014
      3          6           0       -1.245750    2.755661   -0.000013
      4          6           0        0.000003    3.402203    0.000010
      5          6           0        1.245753    2.755661    0.000035
      6          6           0        1.286234    1.361277    0.000053
      7          1           0       -2.159025    3.336007   -0.000040
      8          1           0        0.000001    4.487063   -0.000009
      9          1           0        2.159031    3.336006    0.000050
     10          6           0        3.696104    0.581932   -0.000030
     11          6           0        1.922051   -0.909716    0.000132
     12          6           0        4.189133   -0.743478   -0.000093
     13          6           0        4.550517    1.665805   -0.000059
     14          6           0        5.553424   -0.999950   -0.000197
     15          6           0        5.933435    1.405415   -0.000171
     16          1           0        4.176630    2.682592    0.000007
     17          6           0        6.416739    0.105484   -0.000243
     18          1           0        5.925078   -2.019571   -0.000241
     19          1           0        6.623012    2.243705   -0.000196
     20          1           0        7.487597   -0.070133   -0.000329
     21          6           0       -3.696105    0.581929   -0.000041
     22          6           0       -1.922040   -0.909720    0.000100
     23          6           0       -4.189119   -0.743484   -0.000067
     24          6           0       -4.550514    1.665797   -0.000055
     25          6           0       -5.553423   -0.999958   -0.000099
     26          6           0       -5.933438    1.405407   -0.000101
     27          1           0       -4.176631    2.682588   -0.000024
     28          6           0       -6.416732    0.105477   -0.000125
     29          1           0       -5.925070   -2.019579   -0.000102
     30          1           0       -6.623016    2.243697   -0.000109
     31          1           0       -7.487594   -0.070146   -0.000154
     32          7           0       -2.309274    0.470216    0.000009
     33          7           0       -3.122182   -1.605016   -0.000047
     34          7           0        2.309279    0.470217    0.000072
     35          7           0        3.122188   -1.605009   -0.000033
     36          6           0        3.201697   -3.030402    0.000008
     37          1           0        3.717540   -3.403489   -0.894124
     38          1           0        3.717076   -3.403501    0.894407
     39          1           0        2.187303   -3.440363   -0.000274
     40          6           0       -3.201690   -3.030407    0.000044
     41          1           0       -3.717003   -3.403489    0.894491
     42          1           0       -3.717595   -3.403519   -0.894041
     43          1           0       -2.187295   -3.440365   -0.000304
     44         27           0        0.000008   -1.256854    0.000124
 ---------------------------------------------------------------------

 SCF Done:  E(UPBE1PBE) =  -1212.11151588     A.U. after   15 cycles

 Alpha  occ. eigenvalues --  -14.45796 -14.45796 -14.45260 -14.45260 -10.28346
 Alpha  occ. eigenvalues --  -10.28345 -10.27660 -10.27660 -10.27453 -10.27452
 Alpha  occ. eigenvalues --  -10.27307 -10.27307 -10.25295 -10.25294 -10.24158
 Alpha  occ. eigenvalues --  -10.24158 -10.23954 -10.23954 -10.23491 -10.23491
 Alpha  occ. eigenvalues --  -10.23437 -10.23437 -10.21507 -10.21504 -10.21139
 Alpha  occ. eigenvalues --  -10.19171  -3.83048  -2.34772  -2.34763  -2.30959
 Alpha  occ. eigenvalues --   -1.05933  -1.05870  -0.97098  -0.96769  -0.88236
 Alpha  occ. eigenvalues --   -0.87979  -0.85090  -0.80363  -0.78817  -0.77967
 Alpha  occ. eigenvalues --   -0.77850  -0.75604  -0.75042  -0.73047  -0.71811
 Alpha  occ. eigenvalues --   -0.66565  -0.65202  -0.64559  -0.64158  -0.62641
 Alpha  occ. eigenvalues --   -0.61446  -0.58948  -0.57252  -0.56689  -0.54135
 Alpha  occ. eigenvalues --   -0.53240  -0.52067  -0.49720  -0.49663  -0.49089
 Alpha  occ. eigenvalues --   -0.48391  -0.47861  -0.47458  -0.46652  -0.46212
 Alpha  occ. eigenvalues --   -0.45795  -0.45373  -0.45011  -0.44616  -0.44083
 Alpha  occ. eigenvalues --   -0.42463  -0.41917  -0.41130  -0.38585  -0.38387
 Alpha  occ. eigenvalues --   -0.38318  -0.37575  -0.36888  -0.36857  -0.36693
 Alpha  occ. eigenvalues --   -0.35023  -0.34653  -0.34474  -0.33904  -0.31661
 Alpha  occ. eigenvalues --   -0.28991  -0.26697  -0.25921  -0.24756  -0.24449
 Alpha  occ. eigenvalues --   -0.21437  -0.21362  -0.20451  -0.20091  -0.16423
 Alpha  occ. eigenvalues --   -0.15260  -0.14790
 Alpha virt. eigenvalues --   -0.04473  -0.02516  -0.00689  -0.00088   0.00863
 Alpha virt. eigenvalues --    0.01314   0.02011   0.03268   0.05325   0.05921
 Alpha virt. eigenvalues --    0.06138   0.07309   0.08915   0.09295   0.10091

  Beta  occ. eigenvalues --  -14.45796 -14.45796 -14.45260 -14.45260 -10.28346
  Beta  occ. eigenvalues --  -10.28345 -10.27660 -10.27660 -10.27453 -10.27452
  Beta  occ. eigenvalues --  -10.27307 -10.27307 -10.25295 -10.25294 -10.24158
  Beta  occ. eigenvalues --  -10.24158 -10.23954 -10.23954 -10.23491 -10.23491
  Beta  occ. eigenvalues --  -10.23437 -10.23437 -10.21507 -10.21504 -10.21139
  Beta  occ. eigenvalues --  -10.19171  -3.83048  -2.34772  -2.34763  -2.30959
  Beta  occ. eigenvalues --   -1.05933  -1.05870  -0.97098  -0.96769  -0.88236
  Beta  occ. eigenvalues --   -0.87979  -0.85090  -0.80363  -0.78817  -0.77967
  Beta  occ. eigenvalues --   -0.77850  -0.75604  -0.75042  -0.73047  -0.71811
  Beta  occ. eigenvalues --   -0.66565  -0.65202  -0.64559  -0.64158  -0.62641
  Beta  occ. eigenvalues --   -0.61446  -0.58948  -0.57252  -0.56689  -0.54135
  Beta  occ. eigenvalues --   -0.53240  -0.52067  -0.49720  -0.49663  -0.49089
  Beta  occ. eigenvalues --   -0.48391  -0.47861  -0.47458  -0.46652  -0.46212
  Beta  occ. eigenvalues --   -0.45795  -0.45373  -0.45011  -0.44616  -0.44083
  Beta  occ. eigenvalues --   -0.42463  -0.41917  -0.41130  -0.38585  -0.38387
  Beta  occ. eigenvalues --   -0.38318  -0.37575  -0.36888  -0.36857  -0.36693
  Beta  occ. eigenvalues --   -0.35023  -0.34653  -0.34474  -0.33904  -0.31661
  Beta  occ. eigenvalues --   -0.28991  -0.26697  -0.25921  -0.24756  -0.24449
  Beta  occ. eigenvalues --   -0.21437  -0.21362  -0.20451  -0.20091  -0.16423
  Beta  occ. eigenvalues --   -0.15260  -0.14790
  Beta virt. eigenvalues --   -0.04473  -0.02516  -0.00689  -0.00088   0.00863
  Beta virt. eigenvalues --    0.01314   0.02011   0.03268   0.05325   0.05921
  Beta virt. eigenvalues --    0.06138   0.07309   0.08915   0.09295   0.10091

 Mulliken charges and spin densities:
               1          2
     1  C   -0.175868   0.000000
     2  C    0.351761  -0.000000
     3  C   -0.215565   0.000000
     4  C   -0.180916  -0.000000
     5  C   -0.215564   0.000000
     6  C    0.351759  -0.000000
     7  H    0.156034   0.000000
     8  H    0.156831   0.000000
     9  H    0.156034   0.000000
    10  C    0.314866  -0.000000
    11  C    0.409786   0.000000
    12  C    0.291471  -0.000000
    13  C   -0.190552   0.000000
    14  C   -0.210329   0.000000
    15  C   -0.188218   0.000000
    16  H    0.197556  -0.000000
    17  C   -0.184495  -0.000000
    18  H    0.176898  -0.000000
    19  H    0.174395  -0.000000
    20  H    0.171026   0.000000
    21  C    0.314873  -0.000000
    22  C    0.409785   0.000000
    23  C    0.291465  -0.000000
    24  C   -0.190557   0.000000
    25  C   -0.210326   0.000000
    26  C   -0.188218   0.000000
    27  H    0.197556  -0.000000
    28  C   -0.184494  -0.000000
    29  H    0.176897  -0.000000
    30  H    0.174396  -0.000000
    31  H    0.171025   0.000000
    32  N   -0.725614   0.000000
    33  N   -0.582567   0.000000
    34  N   -0.725610   0.000000
    35  N   -0.582569   0.000000
    36  C   -0.401814   0.000000
    37  H    0.202124   0.000000
    38  H    0.202134  -0.000000
    39  H    0.226209   0.000000
    40  C   -0.401814   0.000000
    41  H    0.202134  -0.000000
    42  H    0.202123   0.000000
    43  H    0.226209   0.000000
    44  Co  -0.150260  -0.000000
 Sum of Mulliken charges =  -0.00000  -0.00000

 Dipole moment (field-independent basis, Debye):
    X=              0.0001    Y=             -3.6589    Z=             -0.0003  Tot=              3.6589
 Quadrupole moment (field-independent basis, Debye-Ang):
   XX=           -126.1457   YY=           -134.6976   ZZ=           -172.2587
   XY=             -0.0001   XZ=             -0.0005   YZ=              0.0004

 Normal termination of Gaussian 16 at Wed Jul 17 21:14:03 2024.
