 Gaussian 16, Revision C.01,
 Gaussian 16:  ES64L-G16RevC.01  3-Jul-2019

 ----------------------------------------------------------------------
 # pbe1pbe em=gd3bj genecp g09default scf=(xqc,maxcycle=64) force guess
 =read nosymm
 ----------------------------------------------------------------------

 ----------
 Title Card
 ----------
 Symbolic Z-matrix:
 Charge =  0 Multiplicity = 3

                          Input orientation:
 ---------------------------------------------------------------------
 Center     Atomic      Atomic             Coordinates (Angstroms)
 Number     Number       Type             X           Y           Z
 ---------------------------------------------------------------------
      1          6           0       -0.000001    0.816811    0.000104
      2          6           0       -1.286233    1.361276    0.000014
      3          6           0       -1.245750    2.755661   -0.000013
      4          6           0        0.000003    3.402203    0.000010
      5          6           0        1.245753    2.755661    0.000035
      6          6           0        1.286234    1.361277    0.000053
      7          1           0       -2.159025    3.336007   -0.000040
      8          1           0        0.000001    4.487063   -0.000009
      9          1           0        2.159031    3.336006    0.000050
     10          6           0        3.696104    0.581932   -0.000030
     11          6           0        1.922051   -0.909716    0.000132
     12          6           0        4.189133   -0.743478   -0.000093
     13          6           0        4.550517    1.665805   -0.000059
     14          6           0        5.553424   -0.999950   -0.000197
     15          6           0        5.933435    1.405415   -0.000171
     16          1           0        4.176630    2.682592    0.000007
     17          6           0        6.416739    0.105484   -0.000243
     18          1           0        5.925078   -2.019571   -0.000241
     19          1           0        6.623012    2.243705   -0.000196
     20          1           0        7.487597   -0.070133   -0.000329
     21          6           0       -3.696105    0.581929   -0.000041
     22          6           0       -1.922040   -0.909720    0.000100
     23          6           0       -4.189119   -0.743484   -0.000067
     24          6           0       -4.550514    1.665797   -0.000055
     25          6           0       -5.553423   -0.999958   -0.000099
     26          6           0       -5.933438    1.405407   -0.000101
     27          1           0       -4.176631    2.682588   -0.000024
     28          6           0       -6.416732    0.105477   -0.000125
     29          1           0       -5.925070   -2.019579   -0.000102
     30          1           0       -6.623016    2.243697   -0.000109
     31          1           0       -7.487594   -0.070146   -0.000154
     32          7           0       -2.309274    0.470216    0.000009
     33          7           0       -3.122182   -1.605016   -0.000047
     34          7           0        2.309279    0.470217    0.000072
     35          7           0        3.122188   -1.605009   -0.000033
     36          6           0        3.201697   -3.030402    0.000008
     37          1           0        3.717540   -3.403489   -0.894124
     38          1           0        3.717076   -3.403501    0.894407
     39          1           0        2.187303   -3.440363   -0.000274
     40          6           0       -3.201690   -3.030407    0.000044
     41          1           0       -3.717003   -3.403489    0.894491
     42          1           0       -3.717595   -3.403519   -0.894041
     43          1           0       -2.187295   -3.440365   -0.000304
     44         27           0        0.000008   -1.256854    0.000124
 ---------------------------------------------------------------------

 SCF Done:  E(UPBE1PBE) =  -1212.11125448     A.U. after   26 cycles

 Alpha  occ. eigenvalues --  -14.45252 -14.45251 -14.45078 -14.45078 -10.27991
 Alpha  occ. eigenvalues --  -10.27991 -10.27426 -10.27426 -10.27278 -10.27277
 Alpha  occ. eigenvalues --  -10.27125 -10.27125 -10.26659 -10.26659 -10.23626
 Alpha  occ. eigenvalues --  -10.23626 -10.23549 -10.23549 -10.23050 -10.23049
 Alpha  occ. eigenvalues --  -10.22977 -10.22977 -10.22446 -10.22431 -10.22359
 Alpha  occ. eigenvalues --  -10.21055  -3.93357  -2.45258  -2.43630  -2.43189
 Alpha  occ. eigenvalues --   -1.05772  -1.05693  -0.97160  -0.96768  -0.88093
 Alpha  occ. eigenvalues --   -0.87661  -0.85726  -0.80504  -0.78872  -0.77679
 Alpha  occ. eigenvalues --   -0.77665  -0.75559  -0.74889  -0.73311  -0.72353
 Alpha  occ. eigenvalues --   -0.66775  -0.65332  -0.64367  -0.64156  -0.62710
 Alpha  occ. eigenvalues --   -0.61382  -0.58963  -0.57663  -0.56615  -0.53975
 Alpha  occ. eigenvalues --   -0.53102  -0.52340  -0.49753  -0.49670  -0.49163
 Alpha  occ. eigenvalues --   -0.48706  -0.48082  -0.47180  -0.46733  -0.45943
 Alpha  occ. eigenvalues --   -0.45722  -0.45341  -0.44899  -0.44815  -0.44179
 Alpha  occ. eigenvalues --   -0.42829  -0.41910  -0.41320  -0.38981  -0.38521
 Alpha  occ. eigenvalues --   -0.38453  -0.37600  -0.37356  -0.37154  -0.36952
 Alpha  occ. eigenvalues --   -0.36395  -0.35062  -0.34591  -0.34012  -0.32018
 Alpha  occ. eigenvalues --   -0.31190  -0.30363  -0.26877  -0.26636  -0.26425
 Alpha  occ. eigenvalues --   -0.26014  -0.26010  -0.24545  -0.24133  -0.22921
 Alpha  occ. eigenvalues --   -0.20885  -0.20709  -0.10076
 Alpha virt. eigenvalues --   -0.06329  -0.02913  -0.00244  -0.00043   0.00352
 Alpha virt. eigenvalues --    0.02266   0.02791   0.03504   0.03802   0.05592
 Alpha virt. eigenvalues --    0.06156   0.07645   0.07696   0.09685   0.10212

  Beta  occ. eigenvalues --  -14.45123 -14.45123 -14.45052 -14.45052 -10.27771
  Beta  occ. eigenvalues --  -10.27770 -10.27429 -10.27429 -10.27287 -10.27287
  Beta  occ. eigenvalues --  -10.27162 -10.27162 -10.26550 -10.26549 -10.23566
  Beta  occ. eigenvalues --  -10.23566 -10.23527 -10.23527 -10.23055 -10.23055
  Beta  occ. eigenvalues --  -10.22945 -10.22945 -10.22530 -10.22526 -10.22264
  Beta  occ. eigenvalues --  -10.21668  -3.85488  -2.36673  -2.36212  -2.33838
  Beta  occ. eigenvalues --   -1.05573  -1.05488  -0.97000  -0.96568  -0.88103
  Beta  occ. eigenvalues --   -0.87590  -0.85843  -0.80449  -0.78855  -0.77618
  Beta  occ. eigenvalues --   -0.77611  -0.75432  -0.74691  -0.73322  -0.72617
  Beta  occ. eigenvalues --   -0.66814  -0.65267  -0.64134  -0.64121  -0.62713
  Beta  occ. eigenvalues --   -0.61287  -0.58961  -0.57772  -0.56615  -0.53957
  Beta  occ. eigenvalues --   -0.53089  -0.52325  -0.49293  -0.49223  -0.49130
  Beta  occ. eigenvalues --   -0.48735  -0.48264  -0.47159  -0.46703  -0.45912
  Beta  occ. eigenvalues --   -0.45733  -0.45311  -0.44826  -0.44556  -0.43871
  Beta  occ. eigenvalues --   -0.42876  -0.41886  -0.41333  -0.38726  -0.38602
  Beta  occ. eigenvalues --   -0.38571  -0.37339  -0.37237  -0.36556  -0.36553
  Beta  occ. eigenvalues --   -0.35746  -0.35149  -0.34052  -0.33364  -0.31692
  Beta  occ. eigenvalues --   -0.29745  -0.27189  -0.26538  -0.25920  -0.24823
  Beta  occ. eigenvalues --   -0.23809  -0.23115  -0.21971  -0.20723  -0.19729
  Beta  occ. eigenvalues --   -0.19552
  Beta virt. eigenvalues --   -0.04414  -0.03902  -0.00696  -0.00261  -0.00084
  Beta virt. eigenvalues --    0.01356   0.01768   0.02450   0.03542   0.05376
  Beta virt. eigenvalues --    0.05644   0.05983   0.07916   0.08783   0.09301

 Mulliken charges and spin densities:
               1          2
     1  C   -0.240498  -0.359582
     2  C    0.397867   0.078297
     3  C   -0.216693  -0.062322
     4  C   -0.178098   0.084737
     5  C   -0.216692  -0.062320
     6  C    0.397865   0.078294
     7  H    0.168097  -0.004401
     8  H    0.164664  -0.004186
     9  H    0.168096  -0.004401
    10  C    0.315030  -0.000974
    11  C    0.369764   0.191361
    12  C    0.294437  -0.022381
    13  C   -0.195351   0.014161
    14  C   -0.216650   0.043928
    15  C   -0.190446   0.024544
    16  H    0.191197  -0.000977
    17  C   -0.183756  -0.009463
    18  H    0.173372  -0.002291
    19  H    0.170932  -0.001467
    20  H    0.168427   0.000141
    21  C    0.315036  -0.000973
    22  C    0.369760   0.191381
    23  C    0.294431  -0.022383
    24  C   -0.195356   0.014160
    25  C   -0.216647   0.043932
    26  C   -0.190447   0.024548
    27  H    0.191196  -0.000977
    28  C   -0.183754  -0.009466
    29  H    0.173371  -0.002291
    30  H    0.170931  -0.001467
    31  H    0.168426   0.000141
    32  N   -0.732388  -0.005311
    33  N   -0.586297   0.037209
    34  N   -0.732383  -0.005311
    35  N   -0.586299   0.037210
    36  C   -0.400555  -0.004443
    37  H    0.201947   0.002039
    38  H    0.201954   0.002042
    39  H    0.217792  -0.000830
    40  C   -0.400555  -0.004443
    41  H    0.201954   0.002043
    42  H    0.201946   0.002038
    43  H    0.217791  -0.000830
    44  Co  -0.043419   1.721284
 Sum of Mulliken charges =  -0.00000   2.00000

 Dipole moment (field-independent basis, Debye):
    X=              0.0002    Y=             -3.3937    Z=             -0.0002  Tot=              3.3937
 Quadrupole moment (field-independent basis, Debye-Ang):
   XX=           -136.6099   YY=           -133.1671   ZZ=           -173.8301
   XY=             -0.0001   XZ=             -0.0004   YZ=              0.0001

 Normal termination of Gaussian 16 at Wed Jul 17 21:13:29 2024.
