 Gaussian 16, Revision C.01,
 Gaussian 16:  ES64L-G16RevC.01  3-Jul-2019

 ----------------------------------------------------------------------
 # pbe1pbe em=gd3bj genecp g09default scf=(xqc,maxcycle=64) force guess
 =read nosymm
 ----------------------------------------------------------------------

 ----------
 Title Card
 ----------
 Symbolic Z-matrix:
 Charge =  0 Multiplicity = 1

                          Input orientation:
 ---------------------------------------------------------------------
 Center     Atomic      Atomic             Coordinates (Angstroms)
 Number     Number       Type             X           Y           Z
 ---------------------------------------------------------------------
      1          6           0        0.000008    0.800227    0.000111
      2          6           0       -1.281015    1.359449    0.000024
      3          6           0       -1.246031    2.756775   -0.000014
      4          6           0       -0.000002    3.404161    0.000008
      5          6           0        1.246040    2.756771    0.000033
      6          6           0        1.281005    1.359457    0.000062
      7          1           0       -2.158547    3.337560   -0.000041
      8          1           0        0.000002    4.491780   -0.000008
      9          1           0        2.158552    3.337559    0.000048
     10          6           0        3.692201    0.581347   -0.000030
     11          6           0        1.919755   -0.910203    0.000137
     12          6           0        4.188882   -0.742917   -0.000095
     13          6           0        4.550070    1.664882   -0.000060
     14          6           0        5.552399   -1.000019   -0.000198
     15          6           0        5.932533    1.404547   -0.000171
     16          1           0        4.178489    2.682799    0.000006
     17          6           0        6.418900    0.105237   -0.000243
     18          1           0        5.928036   -2.018396   -0.000240
     19          1           0        6.622926    2.242790   -0.000197
     20          1           0        7.489701   -0.069351   -0.000328
     21          6           0       -3.692177    0.581320   -0.000042
     22          6           0       -1.919750   -0.910207    0.000104
     23          6           0       -4.188900   -0.742924   -0.000070
     24          6           0       -4.550085    1.664898   -0.000056
     25          6           0       -5.552370   -1.000027   -0.000100
     26          6           0       -5.932526    1.404533   -0.000101
     27          1           0       -4.178491    2.682787   -0.000024
     28          6           0       -6.418905    0.105235   -0.000125
     29          1           0       -5.928030   -2.018406   -0.000101
     30          1           0       -6.622930    2.242783   -0.000109
     31          1           0       -7.489694   -0.069363   -0.000154
     32          7           0       -2.306772    0.470079    0.000013
     33          7           0       -3.120243   -1.604630   -0.000047
     34          7           0        2.306777    0.470070    0.000075
     35          7           0        3.120260   -1.604629   -0.000034
     36          6           0        3.201824   -3.029629    0.000008
     37          1           0        3.718763   -3.402280   -0.893446
     38          1           0        3.718298   -3.402293    0.893730
     39          1           0        2.187613   -3.439344   -0.000275
     40          6           0       -3.201819   -3.029637    0.000044
     41          1           0       -3.718224   -3.402280    0.893813
     42          1           0       -3.718818   -3.402310   -0.893362
     43          1           0       -2.187605   -3.439346   -0.000305
     44         27           0        0.000006   -1.254778    0.000100
 ---------------------------------------------------------------------

 SCF Done:  E(UPBE1PBE) =  -1212.11627001     A.U. after   20 cycles

 Alpha  occ. eigenvalues --  -14.45790 -14.45790 -14.45244 -14.45244 -10.28346
 Alpha  occ. eigenvalues --  -10.28345 -10.27668 -10.27668 -10.27451 -10.27451
 Alpha  occ. eigenvalues --  -10.27289 -10.27289 -10.25285 -10.25285 -10.24173
 Alpha  occ. eigenvalues --  -10.24173 -10.23957 -10.23957 -10.23494 -10.23494
 Alpha  occ. eigenvalues --  -10.23441 -10.23441 -10.21521 -10.21518 -10.21204
 Alpha  occ. eigenvalues --  -10.19137  -3.83114  -2.34852  -2.34821  -2.31023
 Alpha  occ. eigenvalues --   -1.05919  -1.05854  -0.97079  -0.96749  -0.88196
 Alpha  occ. eigenvalues --   -0.87942  -0.84994  -0.80327  -0.78795  -0.77927
 Alpha  occ. eigenvalues --   -0.77821  -0.75581  -0.75035  -0.72973  -0.71837
 Alpha  occ. eigenvalues --   -0.66569  -0.65177  -0.64543  -0.64122  -0.62620
 Alpha  occ. eigenvalues --   -0.61419  -0.58933  -0.57239  -0.56648  -0.54123
 Alpha  occ. eigenvalues --   -0.53233  -0.52003  -0.49704  -0.49646  -0.49052
 Alpha  occ. eigenvalues --   -0.48264  -0.47885  -0.47464  -0.46636  -0.46161
 Alpha  occ. eigenvalues --   -0.45810  -0.45350  -0.45029  -0.44599  -0.44066
 Alpha  occ. eigenvalues --   -0.42423  -0.41912  -0.41108  -0.38542  -0.38439
 Alpha  occ. eigenvalues --   -0.38314  -0.37506  -0.36858  -0.36803  -0.36709
 Alpha  occ. eigenvalues --   -0.35108  -0.34694  -0.34441  -0.33871  -0.31621
 Alpha  occ. eigenvalues --   -0.29022  -0.26648  -0.25915  -0.24775  -0.24464
 Alpha  occ. eigenvalues --   -0.21833  -0.21313  -0.20497  -0.20162  -0.16435
 Alpha  occ. eigenvalues --   -0.15315  -0.14851
 Alpha virt. eigenvalues --   -0.04492  -0.02517  -0.00680  -0.00122   0.00852
 Alpha virt. eigenvalues --    0.01319   0.02016   0.03275   0.05322   0.05923
 Alpha virt. eigenvalues --    0.06189   0.07308   0.08900   0.09297   0.10100

  Beta  occ. eigenvalues --  -14.45790 -14.45790 -14.45244 -14.45244 -10.28346
  Beta  occ. eigenvalues --  -10.28345 -10.27668 -10.27668 -10.27451 -10.27451
  Beta  occ. eigenvalues --  -10.27289 -10.27289 -10.25285 -10.25285 -10.24173
  Beta  occ. eigenvalues --  -10.24173 -10.23957 -10.23957 -10.23494 -10.23494
  Beta  occ. eigenvalues --  -10.23441 -10.23441 -10.21521 -10.21518 -10.21204
  Beta  occ. eigenvalues --  -10.19137  -3.83114  -2.34852  -2.34821  -2.31023
  Beta  occ. eigenvalues --   -1.05919  -1.05854  -0.97079  -0.96749  -0.88196
  Beta  occ. eigenvalues --   -0.87942  -0.84994  -0.80327  -0.78795  -0.77927
  Beta  occ. eigenvalues --   -0.77821  -0.75581  -0.75035  -0.72973  -0.71837
  Beta  occ. eigenvalues --   -0.66569  -0.65177  -0.64543  -0.64122  -0.62620
  Beta  occ. eigenvalues --   -0.61419  -0.58933  -0.57239  -0.56648  -0.54123
  Beta  occ. eigenvalues --   -0.53233  -0.52003  -0.49704  -0.49646  -0.49052
  Beta  occ. eigenvalues --   -0.48264  -0.47885  -0.47464  -0.46636  -0.46161
  Beta  occ. eigenvalues --   -0.45810  -0.45350  -0.45029  -0.44599  -0.44066
  Beta  occ. eigenvalues --   -0.42423  -0.41912  -0.41108  -0.38542  -0.38439
  Beta  occ. eigenvalues --   -0.38314  -0.37506  -0.36858  -0.36803  -0.36709
  Beta  occ. eigenvalues --   -0.35108  -0.34694  -0.34441  -0.33871  -0.31621
  Beta  occ. eigenvalues --   -0.29022  -0.26648  -0.25915  -0.24775  -0.24464
  Beta  occ. eigenvalues --   -0.21833  -0.21313  -0.20497  -0.20162  -0.16435
  Beta  occ. eigenvalues --   -0.15315  -0.14851
  Beta virt. eigenvalues --   -0.04493  -0.02517  -0.00680  -0.00122   0.00852
  Beta virt. eigenvalues --    0.01319   0.02016   0.03275   0.05322   0.05923
  Beta virt. eigenvalues --    0.06189   0.07308   0.08900   0.09297   0.10100

 Mulliken charges and spin densities:
               1          2
     1  C   -0.175150  -0.000001
     2  C    0.344211   0.000000
     3  C   -0.211799  -0.000000
     4  C   -0.184453   0.000000
     5  C   -0.211806  -0.000000
     6  C    0.344221   0.000000
     7  H    0.157065  -0.000000
     8  H    0.156878  -0.000000
     9  H    0.157066  -0.000000
    10  C    0.314965   0.000000
    11  C    0.409485  -0.000000
    12  C    0.292098   0.000000
    13  C   -0.190783  -0.000000
    14  C   -0.211351  -0.000000
    15  C   -0.187705  -0.000000
    16  H    0.197088   0.000000
    17  C   -0.184445   0.000000
    18  H    0.176899   0.000000
    19  H    0.174157   0.000000
    20  H    0.171303  -0.000000
    21  C    0.314921   0.000000
    22  C    0.409488  -0.000000
    23  C    0.292134   0.000000
    24  C   -0.190763  -0.000000
    25  C   -0.211372  -0.000000
    26  C   -0.187702  -0.000000
    27  H    0.197086   0.000000
    28  C   -0.184446   0.000000
    29  H    0.176901   0.000000
    30  H    0.174155   0.000000
    31  H    0.171305  -0.000000
    32  N   -0.724134  -0.000000
    33  N   -0.583580  -0.000000
    34  N   -0.724154  -0.000000
    35  N   -0.583568  -0.000000
    36  C   -0.401630  -0.000000
    37  H    0.202092  -0.000000
    38  H    0.202102  -0.000000
    39  H    0.225808  -0.000000
    40  C   -0.401628  -0.000000
    41  H    0.202103  -0.000000
    42  H    0.202092  -0.000000
    43  H    0.225807  -0.000000
    44  Co  -0.140961   0.000001
 Sum of Mulliken charges =  -0.00000   0.00000

 Dipole moment (field-independent basis, Debye):
    X=             -0.0001    Y=             -3.6593    Z=             -0.0003  Tot=              3.6593
 Quadrupole moment (field-independent basis, Debye-Ang):
   XX=           -126.1584   YY=           -134.6714   ZZ=           -172.2848
   XY=              0.0004   XZ=             -0.0005   YZ=              0.0005

 Normal termination of Gaussian 16 at Wed Jul 17 21:15:28 2024.
