 Gaussian 16, Revision C.01,
 Gaussian 16:  ES64L-G16RevC.01  3-Jul-2019

 ----------------------------------------------------------------------
 # pbe1pbe em=gd3bj genecp g09default scf=(xqc,maxcycle=64) force guess
 =read nosymm
 ----------------------------------------------------------------------

 ----------
 Title Card
 ----------
 Symbolic Z-matrix:
 Charge =  0 Multiplicity = 3

                          Input orientation:
 ---------------------------------------------------------------------
 Center     Atomic      Atomic             Coordinates (Angstroms)
 Number     Number       Type             X           Y           Z
 ---------------------------------------------------------------------
      1          6           0        0.000008    0.800227    0.000111
      2          6           0       -1.281015    1.359449    0.000024
      3          6           0       -1.246031    2.756775   -0.000014
      4          6           0       -0.000002    3.404161    0.000008
      5          6           0        1.246040    2.756771    0.000033
      6          6           0        1.281005    1.359457    0.000062
      7          1           0       -2.158547    3.337560   -0.000041
      8          1           0        0.000002    4.491780   -0.000008
      9          1           0        2.158552    3.337559    0.000048
     10          6           0        3.692201    0.581347   -0.000030
     11          6           0        1.919755   -0.910203    0.000137
     12          6           0        4.188882   -0.742917   -0.000095
     13          6           0        4.550070    1.664882   -0.000060
     14          6           0        5.552399   -1.000019   -0.000198
     15          6           0        5.932533    1.404547   -0.000171
     16          1           0        4.178489    2.682799    0.000006
     17          6           0        6.418900    0.105237   -0.000243
     18          1           0        5.928036   -2.018396   -0.000240
     19          1           0        6.622926    2.242790   -0.000197
     20          1           0        7.489701   -0.069351   -0.000328
     21          6           0       -3.692177    0.581320   -0.000042
     22          6           0       -1.919750   -0.910207    0.000104
     23          6           0       -4.188900   -0.742924   -0.000070
     24          6           0       -4.550085    1.664898   -0.000056
     25          6           0       -5.552370   -1.000027   -0.000100
     26          6           0       -5.932526    1.404533   -0.000101
     27          1           0       -4.178491    2.682787   -0.000024
     28          6           0       -6.418905    0.105235   -0.000125
     29          1           0       -5.928030   -2.018406   -0.000101
     30          1           0       -6.622930    2.242783   -0.000109
     31          1           0       -7.489694   -0.069363   -0.000154
     32          7           0       -2.306772    0.470079    0.000013
     33          7           0       -3.120243   -1.604630   -0.000047
     34          7           0        2.306777    0.470070    0.000075
     35          7           0        3.120260   -1.604629   -0.000034
     36          6           0        3.201824   -3.029629    0.000008
     37          1           0        3.718763   -3.402280   -0.893446
     38          1           0        3.718298   -3.402293    0.893730
     39          1           0        2.187613   -3.439344   -0.000275
     40          6           0       -3.201819   -3.029637    0.000044
     41          1           0       -3.718224   -3.402280    0.893813
     42          1           0       -3.718818   -3.402310   -0.893362
     43          1           0       -2.187605   -3.439346   -0.000305
     44         27           0        0.000006   -1.254778    0.000100
 ---------------------------------------------------------------------

 SCF Done:  E(UPBE1PBE) =  -1212.11481538     A.U. after   25 cycles

 Alpha  occ. eigenvalues --  -14.45252 -14.45252 -14.45059 -14.45059 -10.28009
 Alpha  occ. eigenvalues --  -10.28009 -10.27436 -10.27435 -10.27272 -10.27272
 Alpha  occ. eigenvalues --  -10.27128 -10.27128 -10.26620 -10.26619 -10.23645
 Alpha  occ. eigenvalues --  -10.23645 -10.23553 -10.23553 -10.23061 -10.23060
 Alpha  occ. eigenvalues --  -10.22979 -10.22979 -10.22449 -10.22416 -10.22384
 Alpha  occ. eigenvalues --  -10.20956  -3.93466  -2.45413  -2.43725  -2.43238
 Alpha  occ. eigenvalues --   -1.05762  -1.05681  -0.97138  -0.96747  -0.88046
 Alpha  occ. eigenvalues --   -0.87627  -0.85618  -0.80455  -0.78858  -0.77641
 Alpha  occ. eigenvalues --   -0.77637  -0.75528  -0.74890  -0.73241  -0.72362
 Alpha  occ. eigenvalues --   -0.66773  -0.65308  -0.64357  -0.64124  -0.62687
 Alpha  occ. eigenvalues --   -0.61357  -0.58934  -0.57640  -0.56580  -0.53958
 Alpha  occ. eigenvalues --   -0.53099  -0.52265  -0.49745  -0.49662  -0.49129
 Alpha  occ. eigenvalues --   -0.48574  -0.48122  -0.47190  -0.46739  -0.45897
 Alpha  occ. eigenvalues --   -0.45709  -0.45324  -0.44879  -0.44825  -0.44163
 Alpha  occ. eigenvalues --   -0.42772  -0.41913  -0.41308  -0.38930  -0.38568
 Alpha  occ. eigenvalues --   -0.38435  -0.37679  -0.37294  -0.37134  -0.36919
 Alpha  occ. eigenvalues --   -0.36388  -0.35084  -0.34561  -0.33988  -0.31983
 Alpha  occ. eigenvalues --   -0.31339  -0.30424  -0.26875  -0.26720  -0.26641
 Alpha  occ. eigenvalues --   -0.26175  -0.25994  -0.24564  -0.24189  -0.22931
 Alpha  occ. eigenvalues --   -0.20845  -0.20676  -0.10112
 Alpha virt. eigenvalues --   -0.06343  -0.02905  -0.00274  -0.00025   0.00344
 Alpha virt. eigenvalues --    0.02269   0.02799   0.03561   0.03806   0.05589
 Alpha virt. eigenvalues --    0.06157   0.07658   0.07689   0.09694   0.10223

  Beta  occ. eigenvalues --  -14.45122 -14.45122 -14.45033 -14.45033 -10.27787
  Beta  occ. eigenvalues --  -10.27786 -10.27438 -10.27438 -10.27281 -10.27281
  Beta  occ. eigenvalues --  -10.27165 -10.27165 -10.26508 -10.26507 -10.23586
  Beta  occ. eigenvalues --  -10.23586 -10.23531 -10.23530 -10.23067 -10.23067
  Beta  occ. eigenvalues --  -10.22947 -10.22947 -10.22517 -10.22512 -10.22301
  Beta  occ. eigenvalues --  -10.21531  -3.85748  -2.36996  -2.36487  -2.34020
  Beta  occ. eigenvalues --   -1.05560  -1.05474  -0.96971  -0.96543  -0.88045
  Beta  occ. eigenvalues --   -0.87556  -0.85718  -0.80396  -0.78839  -0.77590
  Beta  occ. eigenvalues --   -0.77573  -0.75393  -0.74691  -0.73253  -0.72599
  Beta  occ. eigenvalues --   -0.66812  -0.65215  -0.64109  -0.64107  -0.62680
  Beta  occ. eigenvalues --   -0.61261  -0.58927  -0.57730  -0.56575  -0.53935
  Beta  occ. eigenvalues --   -0.53083  -0.52243  -0.49281  -0.49212  -0.49094
  Beta  occ. eigenvalues --   -0.48598  -0.48284  -0.47168  -0.46701  -0.45865
  Beta  occ. eigenvalues --   -0.45714  -0.45293  -0.44831  -0.44530  -0.43854
  Beta  occ. eigenvalues --   -0.42814  -0.41890  -0.41320  -0.38661  -0.38609
  Beta  occ. eigenvalues --   -0.38570  -0.37279  -0.37230  -0.36543  -0.36518
  Beta  occ. eigenvalues --   -0.35843  -0.35161  -0.34017  -0.33334  -0.31647
  Beta  occ. eigenvalues --   -0.29788  -0.27529  -0.26481  -0.25906  -0.24884
  Beta  occ. eigenvalues --   -0.23828  -0.23328  -0.21954  -0.20691  -0.19795
  Beta  occ. eigenvalues --   -0.19697
  Beta virt. eigenvalues --   -0.04457  -0.04000  -0.00689  -0.00377  -0.00115
  Beta virt. eigenvalues --    0.01333   0.01710   0.02451   0.03547   0.05375
  Beta virt. eigenvalues --    0.05657   0.05979   0.07911   0.08776   0.09301

 Mulliken charges and spin densities:
               1          2
     1  C   -0.241067  -0.336835
     2  C    0.389818   0.078775
     3  C   -0.212654  -0.063132
     4  C   -0.181650   0.086887
     5  C   -0.212660  -0.063133
     6  C    0.389827   0.078770
     7  H    0.168594  -0.003626
     8  H    0.164557  -0.004289
     9  H    0.168595  -0.003626
    10  C    0.315135  -0.001013
    11  C    0.370079   0.192296
    12  C    0.295074  -0.022375
    13  C   -0.195528   0.014180
    14  C   -0.217631   0.043711
    15  C   -0.189871   0.024042
    16  H    0.190869  -0.000970
    17  C   -0.183742  -0.009115
    18  H    0.173375  -0.002278
    19  H    0.170740  -0.001441
    20  H    0.168720   0.000126
    21  C    0.315090  -0.001015
    22  C    0.370080   0.192308
    23  C    0.295111  -0.022372
    24  C   -0.195507   0.014183
    25  C   -0.217652   0.043707
    26  C   -0.189868   0.024033
    27  H    0.190868  -0.000970
    28  C   -0.183743  -0.009109
    29  H    0.173376  -0.002278
    30  H    0.170738  -0.001440
    31  H    0.168722   0.000125
    32  N   -0.730747  -0.005294
    33  N   -0.587436   0.038068
    34  N   -0.730768  -0.005287
    35  N   -0.587422   0.038057
    36  C   -0.400287  -0.004534
    37  H    0.201972   0.002094
    38  H    0.201979   0.002097
    39  H    0.217152  -0.000806
    40  C   -0.400285  -0.004535
    41  H    0.201980   0.002098
    42  H    0.201972   0.002094
    43  H    0.217150  -0.000806
    44  Co  -0.033056   1.692627
 Sum of Mulliken charges =  -0.00000   2.00000

 Dipole moment (field-independent basis, Debye):
    X=             -0.0001    Y=             -3.4269    Z=             -0.0001  Tot=              3.4269
 Quadrupole moment (field-independent basis, Debye-Ang):
   XX=           -136.5383   YY=           -133.1312   ZZ=           -173.8564
   XY=              0.0002   XZ=             -0.0004   YZ=             -0.0000

 Normal termination of Gaussian 16 at Wed Jul 17 21:14:48 2024.
