 Gaussian 16, Revision C.01,
 Gaussian 16:  ES64L-G16RevC.01  3-Jul-2019

 ----------------------------------------------------------------------
 # pbe1pbe em=gd3bj genecp g09default scf=(xqc,maxcycle=64) force guess
 =read nosymm
 ----------------------------------------------------------------------

 ----------
 Title Card
 ----------
 Symbolic Z-matrix:
 Charge =  0 Multiplicity = 1

                          Input orientation:
 ---------------------------------------------------------------------
 Center     Atomic      Atomic             Coordinates (Angstroms)
 Number     Number       Type             X           Y           Z
 ---------------------------------------------------------------------
      1          6           0        0.000002    0.795748    0.000115
      2          6           0       -1.279834    1.359663    0.000025
      3          6           0       -1.245252    2.755538   -0.000014
      4          6           0        0.000001    3.404838    0.000008
      5          6           0        1.245257    2.755537    0.000033
      6          6           0        1.279834    1.359666    0.000064
      7          1           0       -2.158479    3.337563   -0.000042
      8          1           0        0.000001    4.491933   -0.000008
      9          1           0        2.158485    3.337561    0.000047
     10          6           0        3.691920    0.581608   -0.000030
     11          6           0        1.919401   -0.909786    0.000137
     12          6           0        4.187623   -0.742832   -0.000096
     13          6           0        4.549117    1.664565   -0.000060
     14          6           0        5.552493   -0.999823   -0.000198
     15          6           0        5.932190    1.404089   -0.000171
     16          1           0        4.178615    2.682754    0.000007
     17          6           0        6.418032    0.105048   -0.000243
     18          1           0        5.928110   -2.018096   -0.000241
     19          1           0        6.622282    2.242462   -0.000197
     20          1           0        7.489722   -0.069248   -0.000328
     21          6           0       -3.691913    0.581598   -0.000042
     22          6           0       -1.919394   -0.909789    0.000103
     23          6           0       -4.187618   -0.742837   -0.000070
     24          6           0       -4.549119    1.664564   -0.000056
     25          6           0       -5.552485   -0.999831   -0.000100
     26          6           0       -5.932189    1.404078   -0.000101
     27          1           0       -4.178616    2.682746   -0.000024
     28          6           0       -6.418029    0.105042   -0.000124
     29          1           0       -5.928102   -2.018103   -0.000102
     30          1           0       -6.622285    2.242453   -0.000109
     31          1           0       -7.489718   -0.069260   -0.000154
     32          7           0       -2.305793    0.469843    0.000014
     33          7           0       -3.119650   -1.604583   -0.000047
     34          7           0        2.305797    0.469842    0.000077
     35          7           0        3.119658   -1.604579   -0.000035
     36          6           0        3.201448   -3.029279    0.000008
     37          1           0        3.718774   -3.401637   -0.893353
     38          1           0        3.718309   -3.401650    0.893638
     39          1           0        2.187402   -3.439396   -0.000275
     40          6           0       -3.201440   -3.029285    0.000044
     41          1           0       -3.718235   -3.401637    0.893721
     42          1           0       -3.718829   -3.401667   -0.893270
     43          1           0       -2.187394   -3.439399   -0.000304
     44         27           0        0.000005   -1.251944    0.000093
 ---------------------------------------------------------------------

 SCF Done:  E(UPBE1PBE) =  -1212.11763607     A.U. after   17 cycles

 Alpha  occ. eigenvalues --  -14.45790 -14.45790 -14.45230 -14.45230 -10.28330
 Alpha  occ. eigenvalues --  -10.28330 -10.27656 -10.27656 -10.27455 -10.27455
 Alpha  occ. eigenvalues --  -10.27291 -10.27291 -10.25257 -10.25256 -10.24172
 Alpha  occ. eigenvalues --  -10.24172 -10.23951 -10.23951 -10.23488 -10.23488
 Alpha  occ. eigenvalues --  -10.23435 -10.23435 -10.21516 -10.21512 -10.21197
 Alpha  occ. eigenvalues --  -10.19126  -3.83123  -2.34867  -2.34824  -2.31033
 Alpha  occ. eigenvalues --   -1.05922  -1.05858  -0.97076  -0.96744  -0.88198
 Alpha  occ. eigenvalues --   -0.87943  -0.84988  -0.80328  -0.78794  -0.77920
 Alpha  occ. eigenvalues --   -0.77822  -0.75585  -0.75032  -0.72968  -0.71837
 Alpha  occ. eigenvalues --   -0.66553  -0.65182  -0.64548  -0.64101  -0.62627
 Alpha  occ. eigenvalues --   -0.61415  -0.58919  -0.57246  -0.56645  -0.54112
 Alpha  occ. eigenvalues --   -0.53218  -0.52001  -0.49709  -0.49651  -0.49067
 Alpha  occ. eigenvalues --   -0.48234  -0.47876  -0.47459  -0.46642  -0.46168
 Alpha  occ. eigenvalues --   -0.45796  -0.45344  -0.45028  -0.44592  -0.44058
 Alpha  occ. eigenvalues --   -0.42414  -0.41916  -0.41111  -0.38539  -0.38403
 Alpha  occ. eigenvalues --   -0.38316  -0.37524  -0.36853  -0.36813  -0.36733
 Alpha  occ. eigenvalues --   -0.35117  -0.34645  -0.34445  -0.33871  -0.31613
 Alpha  occ. eigenvalues --   -0.29007  -0.26659  -0.25927  -0.24762  -0.24446
 Alpha  occ. eigenvalues --   -0.21957  -0.21324  -0.20511  -0.20177  -0.16422
 Alpha  occ. eigenvalues --   -0.15323  -0.14859
 Alpha virt. eigenvalues --   -0.04494  -0.02508  -0.00682  -0.00088   0.00856
 Alpha virt. eigenvalues --    0.01323   0.02019   0.03281   0.05316   0.05923
 Alpha virt. eigenvalues --    0.06212   0.07309   0.08925   0.09296   0.10094

  Beta  occ. eigenvalues --  -14.45790 -14.45790 -14.45230 -14.45230 -10.28330
  Beta  occ. eigenvalues --  -10.28330 -10.27656 -10.27656 -10.27455 -10.27455
  Beta  occ. eigenvalues --  -10.27291 -10.27291 -10.25257 -10.25256 -10.24172
  Beta  occ. eigenvalues --  -10.24172 -10.23951 -10.23951 -10.23488 -10.23488
  Beta  occ. eigenvalues --  -10.23435 -10.23435 -10.21516 -10.21512 -10.21197
  Beta  occ. eigenvalues --  -10.19126  -3.83123  -2.34867  -2.34824  -2.31033
  Beta  occ. eigenvalues --   -1.05922  -1.05858  -0.97076  -0.96744  -0.88198
  Beta  occ. eigenvalues --   -0.87943  -0.84988  -0.80328  -0.78794  -0.77920
  Beta  occ. eigenvalues --   -0.77822  -0.75585  -0.75032  -0.72968  -0.71837
  Beta  occ. eigenvalues --   -0.66553  -0.65182  -0.64548  -0.64101  -0.62627
  Beta  occ. eigenvalues --   -0.61415  -0.58919  -0.57246  -0.56645  -0.54112
  Beta  occ. eigenvalues --   -0.53218  -0.52001  -0.49709  -0.49651  -0.49067
  Beta  occ. eigenvalues --   -0.48234  -0.47876  -0.47459  -0.46642  -0.46168
  Beta  occ. eigenvalues --   -0.45796  -0.45344  -0.45028  -0.44592  -0.44058
  Beta  occ. eigenvalues --   -0.42414  -0.41916  -0.41111  -0.38539  -0.38403
  Beta  occ. eigenvalues --   -0.38316  -0.37524  -0.36853  -0.36813  -0.36733
  Beta  occ. eigenvalues --   -0.35117  -0.34645  -0.34445  -0.33871  -0.31613
  Beta  occ. eigenvalues --   -0.29007  -0.26659  -0.25927  -0.24762  -0.24446
  Beta  occ. eigenvalues --   -0.21957  -0.21324  -0.20511  -0.20177  -0.16422
  Beta  occ. eigenvalues --   -0.15323  -0.14859
  Beta virt. eigenvalues --   -0.04494  -0.02508  -0.00682  -0.00088   0.00856
  Beta virt. eigenvalues --    0.01323   0.02019   0.03281   0.05316   0.05923
  Beta virt. eigenvalues --    0.06212   0.07309   0.08925   0.09296   0.10094

 Mulliken charges and spin densities:
               1          2
     1  C   -0.176555  -0.000000
     2  C    0.344070   0.000000
     3  C   -0.211601  -0.000000
     4  C   -0.184965   0.000000
     5  C   -0.211602  -0.000000
     6  C    0.344071   0.000000
     7  H    0.157062  -0.000000
     8  H    0.157049  -0.000000
     9  H    0.157062  -0.000000
    10  C    0.315406   0.000000
    11  C    0.409280  -0.000000
    12  C    0.291272   0.000000
    13  C   -0.191122  -0.000000
    14  C   -0.210877  -0.000000
    15  C   -0.187769  -0.000000
    16  H    0.197092   0.000000
    17  C   -0.184240   0.000000
    18  H    0.176837   0.000000
    19  H    0.174124   0.000000
    20  H    0.171241  -0.000000
    21  C    0.315398   0.000000
    22  C    0.409280  -0.000000
    23  C    0.291278   0.000000
    24  C   -0.191119  -0.000000
    25  C   -0.210880  -0.000000
    26  C   -0.187768  -0.000000
    27  H    0.197092   0.000000
    28  C   -0.184239   0.000000
    29  H    0.176838   0.000000
    30  H    0.174123   0.000000
    31  H    0.171241  -0.000000
    32  N   -0.724182  -0.000000
    33  N   -0.583482  -0.000000
    34  N   -0.724185  -0.000000
    35  N   -0.583480  -0.000000
    36  C   -0.401687  -0.000000
    37  H    0.202093   0.000000
    38  H    0.202103  -0.000000
    39  H    0.225769  -0.000000
    40  C   -0.401687  -0.000000
    41  H    0.202104  -0.000000
    42  H    0.202093   0.000000
    43  H    0.225769  -0.000000
    44  Co  -0.138309   0.000000
 Sum of Mulliken charges =  -0.00000   0.00000

 Dipole moment (field-independent basis, Debye):
    X=              0.0000    Y=             -3.6598    Z=             -0.0003  Tot=              3.6598
 Quadrupole moment (field-independent basis, Debye-Ang):
   XX=           -126.2081   YY=           -134.6417   ZZ=           -172.2799
   XY=              0.0001   XZ=             -0.0005   YZ=              0.0005

 Normal termination of Gaussian 16 at Wed Jul 17 21:16:53 2024.
