 Gaussian 16, Revision C.01,
 Gaussian 16:  ES64L-G16RevC.01  3-Jul-2019

 ----------------------------------------------------------------------
 # pbe1pbe em=gd3bj genecp g09default scf=(xqc,maxcycle=64) force guess
 =read nosymm
 ----------------------------------------------------------------------

 ----------
 Title Card
 ----------
 Symbolic Z-matrix:
 Charge =  0 Multiplicity = 3

                          Input orientation:
 ---------------------------------------------------------------------
 Center     Atomic      Atomic             Coordinates (Angstroms)
 Number     Number       Type             X           Y           Z
 ---------------------------------------------------------------------
      1          6           0        0.000002    0.795748    0.000115
      2          6           0       -1.279834    1.359663    0.000025
      3          6           0       -1.245252    2.755538   -0.000014
      4          6           0        0.000001    3.404838    0.000008
      5          6           0        1.245257    2.755537    0.000033
      6          6           0        1.279834    1.359666    0.000064
      7          1           0       -2.158479    3.337563   -0.000042
      8          1           0        0.000001    4.491933   -0.000008
      9          1           0        2.158485    3.337561    0.000047
     10          6           0        3.691920    0.581608   -0.000030
     11          6           0        1.919401   -0.909786    0.000137
     12          6           0        4.187623   -0.742832   -0.000096
     13          6           0        4.549117    1.664565   -0.000060
     14          6           0        5.552493   -0.999823   -0.000198
     15          6           0        5.932190    1.404089   -0.000171
     16          1           0        4.178615    2.682754    0.000007
     17          6           0        6.418032    0.105048   -0.000243
     18          1           0        5.928110   -2.018096   -0.000241
     19          1           0        6.622282    2.242462   -0.000197
     20          1           0        7.489722   -0.069248   -0.000328
     21          6           0       -3.691913    0.581598   -0.000042
     22          6           0       -1.919394   -0.909789    0.000103
     23          6           0       -4.187618   -0.742837   -0.000070
     24          6           0       -4.549119    1.664564   -0.000056
     25          6           0       -5.552485   -0.999831   -0.000100
     26          6           0       -5.932189    1.404078   -0.000101
     27          1           0       -4.178616    2.682746   -0.000024
     28          6           0       -6.418029    0.105042   -0.000124
     29          1           0       -5.928102   -2.018103   -0.000102
     30          1           0       -6.622285    2.242453   -0.000109
     31          1           0       -7.489718   -0.069260   -0.000154
     32          7           0       -2.305793    0.469843    0.000014
     33          7           0       -3.119650   -1.604583   -0.000047
     34          7           0        2.305797    0.469842    0.000077
     35          7           0        3.119658   -1.604579   -0.000035
     36          6           0        3.201448   -3.029279    0.000008
     37          1           0        3.718774   -3.401637   -0.893353
     38          1           0        3.718309   -3.401650    0.893638
     39          1           0        2.187402   -3.439396   -0.000275
     40          6           0       -3.201440   -3.029285    0.000044
     41          1           0       -3.718235   -3.401637    0.893721
     42          1           0       -3.718829   -3.401667   -0.893270
     43          1           0       -2.187394   -3.439399   -0.000304
     44         27           0        0.000005   -1.251944    0.000093
 ---------------------------------------------------------------------

 SCF Done:  E(UPBE1PBE) =  -1212.11583515     A.U. after   31 cycles

 Alpha  occ. eigenvalues --  -14.45259 -14.45259 -14.45042 -14.45042 -10.28004
 Alpha  occ. eigenvalues --  -10.28003 -10.27423 -10.27422 -10.27279 -10.27279
 Alpha  occ. eigenvalues --  -10.27133 -10.27133 -10.26581 -10.26581 -10.23647
 Alpha  occ. eigenvalues --  -10.23647 -10.23547 -10.23547 -10.23056 -10.23056
 Alpha  occ. eigenvalues --  -10.22973 -10.22973 -10.22437 -10.22401 -10.22372
 Alpha  occ. eigenvalues --  -10.20914  -3.93484  -2.45451  -2.43735  -2.43232
 Alpha  occ. eigenvalues --   -1.05767  -1.05686  -0.97136  -0.96743  -0.88046
 Alpha  occ. eigenvalues --   -0.87628  -0.85608  -0.80454  -0.78861  -0.77635
 Alpha  occ. eigenvalues --   -0.77635  -0.75533  -0.74889  -0.73234  -0.72359
 Alpha  occ. eigenvalues --   -0.66755  -0.65314  -0.64363  -0.64103  -0.62697
 Alpha  occ. eigenvalues --   -0.61354  -0.58917  -0.57649  -0.56571  -0.53946
 Alpha  occ. eigenvalues --   -0.53084  -0.52259  -0.49752  -0.49670  -0.49148
 Alpha  occ. eigenvalues --   -0.48539  -0.48109  -0.47188  -0.46739  -0.45906
 Alpha  occ. eigenvalues --   -0.45703  -0.45321  -0.44872  -0.44824  -0.44157
 Alpha  occ. eigenvalues --   -0.42758  -0.41923  -0.41316  -0.38926  -0.38526
 Alpha  occ. eigenvalues --   -0.38458  -0.37685  -0.37309  -0.37152  -0.36914
 Alpha  occ. eigenvalues --   -0.36382  -0.35037  -0.34565  -0.33990  -0.31974
 Alpha  occ. eigenvalues --   -0.31373  -0.30413  -0.26889  -0.26809  -0.26638
 Alpha  occ. eigenvalues --   -0.26224  -0.26000  -0.24546  -0.24185  -0.22921
 Alpha  occ. eigenvalues --   -0.20851  -0.20661  -0.10117
 Alpha virt. eigenvalues --   -0.06330  -0.02895  -0.00236  -0.00016   0.00344
 Alpha virt. eigenvalues --    0.02273   0.02796   0.03591   0.03802   0.05588
 Alpha virt. eigenvalues --    0.06157   0.07668   0.07718   0.09691   0.10217

  Beta  occ. eigenvalues --  -14.45129 -14.45129 -14.45016 -14.45016 -10.27780
  Beta  occ. eigenvalues --  -10.27780 -10.27425 -10.27425 -10.27289 -10.27288
  Beta  occ. eigenvalues --  -10.27170 -10.27170 -10.26469 -10.26468 -10.23587
  Beta  occ. eigenvalues --  -10.23587 -10.23524 -10.23524 -10.23062 -10.23062
  Beta  occ. eigenvalues --  -10.22940 -10.22940 -10.22502 -10.22496 -10.22289
  Beta  occ. eigenvalues --  -10.21476  -3.85817  -2.37087  -2.36561  -2.34062
  Beta  occ. eigenvalues --   -1.05564  -1.05479  -0.96967  -0.96539  -0.88042
  Beta  occ. eigenvalues --   -0.87557  -0.85701  -0.80393  -0.78840  -0.77587
  Beta  occ. eigenvalues --   -0.77566  -0.75398  -0.74690  -0.73245  -0.72585
  Beta  occ. eigenvalues --   -0.66793  -0.65211  -0.64117  -0.64089  -0.62689
  Beta  occ. eigenvalues --   -0.61257  -0.58908  -0.57733  -0.56565  -0.53922
  Beta  occ. eigenvalues --   -0.53067  -0.52234  -0.49289  -0.49221  -0.49111
  Beta  occ. eigenvalues --   -0.48560  -0.48260  -0.47166  -0.46700  -0.45874
  Beta  occ. eigenvalues --   -0.45709  -0.45288  -0.44829  -0.44521  -0.43847
  Beta  occ. eigenvalues --   -0.42799  -0.41899  -0.41327  -0.38651  -0.38593
  Beta  occ. eigenvalues --   -0.38563  -0.37293  -0.37236  -0.36546  -0.36512
  Beta  occ. eigenvalues --   -0.35856  -0.35113  -0.34021  -0.33337  -0.31635
  Beta  occ. eigenvalues --   -0.29776  -0.27629  -0.26489  -0.25908  -0.24887
  Beta  occ. eigenvalues --   -0.23811  -0.23390  -0.21959  -0.20679  -0.19812
  Beta  occ. eigenvalues --   -0.19727
  Beta virt. eigenvalues --   -0.04472  -0.04020  -0.00687  -0.00415  -0.00080
  Beta virt. eigenvalues --    0.01327   0.01710   0.02449   0.03551   0.05382
  Beta virt. eigenvalues --    0.05665   0.05977   0.07910   0.08801   0.09296

 Mulliken charges and spin densities:
               1          2
     1  C   -0.243346  -0.328256
     2  C    0.389632   0.078786
     3  C   -0.212492  -0.063175
     4  C   -0.182042   0.088034
     5  C   -0.212493  -0.063175
     6  C    0.389633   0.078784
     7  H    0.168474  -0.003452
     8  H    0.164694  -0.004354
     9  H    0.168474  -0.003452
    10  C    0.315608  -0.000915
    11  C    0.370154   0.192330
    12  C    0.294213  -0.022410
    13  C   -0.195856   0.014024
    14  C   -0.217142   0.043765
    15  C   -0.189938   0.024254
    16  H    0.190912  -0.000961
    17  C   -0.183535  -0.009255
    18  H    0.173309  -0.002280
    19  H    0.170711  -0.001452
    20  H    0.168659   0.000133
    21  C    0.315600  -0.000915
    22  C    0.370152   0.192340
    23  C    0.294219  -0.022410
    24  C   -0.195852   0.014025
    25  C   -0.217146   0.043766
    26  C   -0.189937   0.024253
    27  H    0.190911  -0.000961
    28  C   -0.183534  -0.009255
    29  H    0.173309  -0.002280
    30  H    0.170711  -0.001452
    31  H    0.168659   0.000133
    32  N   -0.730780  -0.005131
    33  N   -0.587325   0.037886
    34  N   -0.730784  -0.005129
    35  N   -0.587323   0.037884
    36  C   -0.400332  -0.004514
    37  H    0.202012   0.002086
    38  H    0.202019   0.002090
    39  H    0.217060  -0.000796
    40  C   -0.400331  -0.004514
    41  H    0.202019   0.002091
    42  H    0.202011   0.002086
    43  H    0.217059  -0.000796
    44  Co  -0.030028   1.682537
 Sum of Mulliken charges =  -0.00000   2.00000

 Dipole moment (field-independent basis, Debye):
    X=              0.0001    Y=             -3.4383    Z=             -0.0002  Tot=              3.4383
 Quadrupole moment (field-independent basis, Debye-Ang):
   XX=           -136.5626   YY=           -133.0866   ZZ=           -173.8528
   XY=              0.0000   XZ=             -0.0004   YZ=              0.0002

 Normal termination of Gaussian 16 at Wed Jul 17 21:16:21 2024.
