 Gaussian 16, Revision C.01,
 Gaussian 16:  ES64L-G16RevC.01  3-Jul-2019

 ----------------------------------------------------------------------
 # pbe1pbe em=gd3bj genecp g09default scf=(xqc,maxcycle=64) force guess
 =read nosymm
 ----------------------------------------------------------------------

 ----------
 Title Card
 ----------
 Symbolic Z-matrix:
 Charge =  0 Multiplicity = 1

                          Input orientation:
 ---------------------------------------------------------------------
 Center     Atomic      Atomic             Coordinates (Angstroms)
 Number     Number       Type             X           Y           Z
 ---------------------------------------------------------------------
      1          6           0       -0.000010    0.794026    0.000126
      2          6           0       -1.280122    1.360646    0.000025
      3          6           0       -1.244779    2.753498   -0.000014
      4          6           0        0.000008    3.404787    0.000008
      5          6           0        1.244774    2.753505    0.000033
      6          6           0        1.280142    1.360640    0.000063
      7          1           0       -2.159261    3.338041   -0.000042
      8          1           0        0.000001    4.490547   -0.000009
      9          1           0        2.159268    3.338040    0.000047
     10          6           0        3.692416    0.582256   -0.000030
     11          6           0        1.919094   -0.909436    0.000136
     12          6           0        4.185462   -0.742671   -0.000095
     13          6           0        4.547869    1.664356   -0.000060
     14          6           0        5.553041   -0.999594   -0.000198
     15          6           0        5.932480    1.403535   -0.000171
     16          1           0        4.178523    2.682744    0.000007
     17          6           0        6.416557    0.105064   -0.000243
     18          1           0        5.927592   -2.017928   -0.000241
     19          1           0        6.621880    2.242361   -0.000197
     20          1           0        7.489774   -0.069287   -0.000328
     21          6           0       -3.692442    0.582279   -0.000042
     22          6           0       -1.919081   -0.909436    0.000103
     23          6           0       -4.185411   -0.742673   -0.000070
     24          6           0       -4.547843    1.664321   -0.000056
     25          6           0       -5.553071   -0.999605   -0.000101
     26          6           0       -5.932493    1.403530   -0.000101
     27          1           0       -4.178523    2.682746   -0.000024
     28          6           0       -6.416537    0.105050   -0.000124
     29          1           0       -5.927581   -2.017931   -0.000102
     30          1           0       -6.621880    2.242350   -0.000109
     31          1           0       -7.489775   -0.069300   -0.000154
     32          7           0       -2.305170    0.469824    0.000015
     33          7           0       -3.119500   -1.604786   -0.000046
     34          7           0        2.305172    0.469839    0.000078
     35          7           0        3.119491   -1.604775   -0.000034
     36          6           0        3.201038   -3.028820    0.000008
     37          1           0        3.718546   -3.401273   -0.893332
     38          1           0        3.718081   -3.401286    0.893616
     39          1           0        2.187267   -3.439675   -0.000275
     40          6           0       -3.201026   -3.028821    0.000044
     41          1           0       -3.718009   -3.401274    0.893700
     42          1           0       -3.718602   -3.401302   -0.893249
     43          1           0       -2.187259   -3.439678   -0.000304
     44         27           0        0.000004   -1.250356    0.000083
 ---------------------------------------------------------------------

 SCF Done:  E(UPBE1PBE) =  -1212.11777717     A.U. after   14 cycles

 Alpha  occ. eigenvalues --  -14.45795 -14.45795 -14.45217 -14.45217 -10.28325
 Alpha  occ. eigenvalues --  -10.28325 -10.27637 -10.27636 -10.27465 -10.27465
 Alpha  occ. eigenvalues --  -10.27299 -10.27298 -10.25225 -10.25224 -10.24173
 Alpha  occ. eigenvalues --  -10.24173 -10.23946 -10.23946 -10.23483 -10.23482
 Alpha  occ. eigenvalues --  -10.23429 -10.23429 -10.21513 -10.21510 -10.21178
 Alpha  occ. eigenvalues --  -10.19141  -3.83133  -2.34877  -2.34832  -2.31045
 Alpha  occ. eigenvalues --   -1.05931  -1.05867  -0.97088  -0.96754  -0.88203
 Alpha  occ. eigenvalues --   -0.87946  -0.84997  -0.80347  -0.78802  -0.77911
 Alpha  occ. eigenvalues --   -0.77821  -0.75595  -0.75026  -0.72984  -0.71818
 Alpha  occ. eigenvalues --   -0.66531  -0.65203  -0.64564  -0.64082  -0.62636
 Alpha  occ. eigenvalues --   -0.61416  -0.58898  -0.57257  -0.56649  -0.54096
 Alpha  occ. eigenvalues --   -0.53199  -0.52010  -0.49722  -0.49665  -0.49095
 Alpha  occ. eigenvalues --   -0.48235  -0.47853  -0.47446  -0.46652  -0.46190
 Alpha  occ. eigenvalues --   -0.45763  -0.45341  -0.45023  -0.44588  -0.44054
 Alpha  occ. eigenvalues --   -0.42413  -0.41920  -0.41112  -0.38542  -0.38330
 Alpha  occ. eigenvalues --   -0.38313  -0.37573  -0.36863  -0.36852  -0.36730
 Alpha  occ. eigenvalues --   -0.35122  -0.34562  -0.34454  -0.33879  -0.31608
 Alpha  occ. eigenvalues --   -0.28998  -0.26686  -0.25939  -0.24736  -0.24410
 Alpha  occ. eigenvalues --   -0.22016  -0.21354  -0.20506  -0.20187  -0.16412
 Alpha  occ. eigenvalues --   -0.15331  -0.14870
 Alpha virt. eigenvalues --   -0.04509  -0.02509  -0.00701  -0.00028   0.00853
 Alpha virt. eigenvalues --    0.01324   0.02029   0.03286   0.05299   0.05920
 Alpha virt. eigenvalues --    0.06219   0.07300   0.08960   0.09289   0.10080

  Beta  occ. eigenvalues --  -14.45795 -14.45795 -14.45217 -14.45217 -10.28325
  Beta  occ. eigenvalues --  -10.28325 -10.27637 -10.27636 -10.27465 -10.27465
  Beta  occ. eigenvalues --  -10.27299 -10.27298 -10.25225 -10.25224 -10.24173
  Beta  occ. eigenvalues --  -10.24173 -10.23946 -10.23946 -10.23483 -10.23482
  Beta  occ. eigenvalues --  -10.23429 -10.23429 -10.21513 -10.21510 -10.21178
  Beta  occ. eigenvalues --  -10.19141  -3.83133  -2.34877  -2.34832  -2.31045
  Beta  occ. eigenvalues --   -1.05931  -1.05867  -0.97088  -0.96754  -0.88203
  Beta  occ. eigenvalues --   -0.87946  -0.84997  -0.80347  -0.78802  -0.77911
  Beta  occ. eigenvalues --   -0.77821  -0.75595  -0.75026  -0.72984  -0.71818
  Beta  occ. eigenvalues --   -0.66531  -0.65203  -0.64564  -0.64082  -0.62636
  Beta  occ. eigenvalues --   -0.61416  -0.58898  -0.57257  -0.56649  -0.54096
  Beta  occ. eigenvalues --   -0.53199  -0.52010  -0.49722  -0.49665  -0.49095
  Beta  occ. eigenvalues --   -0.48235  -0.47853  -0.47446  -0.46652  -0.46190
  Beta  occ. eigenvalues --   -0.45763  -0.45341  -0.45023  -0.44588  -0.44054
  Beta  occ. eigenvalues --   -0.42413  -0.41920  -0.41112  -0.38542  -0.38330
  Beta  occ. eigenvalues --   -0.38313  -0.37573  -0.36863  -0.36852  -0.36730
  Beta  occ. eigenvalues --   -0.35122  -0.34562  -0.34454  -0.33879  -0.31608
  Beta  occ. eigenvalues --   -0.28998  -0.26686  -0.25939  -0.24736  -0.24410
  Beta  occ. eigenvalues --   -0.22016  -0.21354  -0.20506  -0.20187  -0.16412
  Beta  occ. eigenvalues --   -0.15331  -0.14870
  Beta virt. eigenvalues --   -0.04509  -0.02509  -0.00701  -0.00028   0.00853
  Beta virt. eigenvalues --    0.01324   0.02029   0.03286   0.05299   0.05920
  Beta virt. eigenvalues --    0.06219   0.07300   0.08960   0.09289   0.10080

 Mulliken charges and spin densities:
               1          2
     1  C   -0.178148  -0.000000
     2  C    0.345577   0.000000
     3  C   -0.212209  -0.000000
     4  C   -0.185012   0.000000
     5  C   -0.212198  -0.000000
     6  C    0.345562   0.000000
     7  H    0.156885  -0.000000
     8  H    0.157161  -0.000000
     9  H    0.156884  -0.000000
    10  C    0.316529   0.000000
    11  C    0.408963  -0.000000
    12  C    0.289676   0.000000
    13  C   -0.191814  -0.000000
    14  C   -0.209988  -0.000000
    15  C   -0.187910  -0.000000
    16  H    0.197190   0.000000
    17  C   -0.183859   0.000000
    18  H    0.176750   0.000000
    19  H    0.174149   0.000000
    20  H    0.171072  -0.000000
    21  C    0.316593   0.000000
    22  C    0.408956  -0.000000
    23  C    0.289621   0.000000
    24  C   -0.191846  -0.000000
    25  C   -0.209957  -0.000000
    26  C   -0.187912  -0.000000
    27  H    0.197192   0.000000
    28  C   -0.183855   0.000000
    29  H    0.176748   0.000000
    30  H    0.174151   0.000000
    31  H    0.171067  -0.000000
    32  N   -0.724822  -0.000000
    33  N   -0.582736  -0.000000
    34  N   -0.724792  -0.000000
    35  N   -0.582755  -0.000000
    36  C   -0.401906  -0.000000
    37  H    0.202096   0.000000
    38  H    0.202106  -0.000000
    39  H    0.225800  -0.000000
    40  C   -0.401909  -0.000000
    41  H    0.202105  -0.000000
    42  H    0.202094   0.000000
    43  H    0.225802  -0.000000
    44  Co  -0.137102   0.000001
 Sum of Mulliken charges =  -0.00000   0.00000

 Dipole moment (field-independent basis, Debye):
    X=              0.0002    Y=             -3.6645    Z=             -0.0003  Tot=              3.6645
 Quadrupole moment (field-independent basis, Debye-Ang):
   XX=           -126.3088   YY=           -134.6104   ZZ=           -172.2734
   XY=             -0.0006   XZ=             -0.0005   YZ=              0.0006

 Normal termination of Gaussian 16 at Wed Jul 17 21:18:11 2024.
