 Gaussian 16, Revision C.01,
 Gaussian 16:  ES64L-G16RevC.01  3-Jul-2019

 ----------------------------------------------------------------------
 # pbe1pbe em=gd3bj genecp g09default scf=(xqc,maxcycle=64) force guess
 =read nosymm
 ----------------------------------------------------------------------

 ----------
 Title Card
 ----------
 Symbolic Z-matrix:
 Charge =  0 Multiplicity = 3

                          Input orientation:
 ---------------------------------------------------------------------
 Center     Atomic      Atomic             Coordinates (Angstroms)
 Number     Number       Type             X           Y           Z
 ---------------------------------------------------------------------
      1          6           0       -0.000010    0.794026    0.000126
      2          6           0       -1.280122    1.360646    0.000025
      3          6           0       -1.244779    2.753498   -0.000014
      4          6           0        0.000008    3.404787    0.000008
      5          6           0        1.244774    2.753505    0.000033
      6          6           0        1.280142    1.360640    0.000063
      7          1           0       -2.159261    3.338041   -0.000042
      8          1           0        0.000001    4.490547   -0.000009
      9          1           0        2.159268    3.338040    0.000047
     10          6           0        3.692416    0.582256   -0.000030
     11          6           0        1.919094   -0.909436    0.000136
     12          6           0        4.185462   -0.742671   -0.000095
     13          6           0        4.547869    1.664356   -0.000060
     14          6           0        5.553041   -0.999594   -0.000198
     15          6           0        5.932480    1.403535   -0.000171
     16          1           0        4.178523    2.682744    0.000007
     17          6           0        6.416557    0.105064   -0.000243
     18          1           0        5.927592   -2.017928   -0.000241
     19          1           0        6.621880    2.242361   -0.000197
     20          1           0        7.489774   -0.069287   -0.000328
     21          6           0       -3.692442    0.582279   -0.000042
     22          6           0       -1.919081   -0.909436    0.000103
     23          6           0       -4.185411   -0.742673   -0.000070
     24          6           0       -4.547843    1.664321   -0.000056
     25          6           0       -5.553071   -0.999605   -0.000101
     26          6           0       -5.932493    1.403530   -0.000101
     27          1           0       -4.178523    2.682746   -0.000024
     28          6           0       -6.416537    0.105050   -0.000124
     29          1           0       -5.927581   -2.017931   -0.000102
     30          1           0       -6.621880    2.242350   -0.000109
     31          1           0       -7.489775   -0.069300   -0.000154
     32          7           0       -2.305170    0.469824    0.000015
     33          7           0       -3.119500   -1.604786   -0.000046
     34          7           0        2.305172    0.469839    0.000078
     35          7           0        3.119491   -1.604775   -0.000034
     36          6           0        3.201038   -3.028820    0.000008
     37          1           0        3.718546   -3.401273   -0.893332
     38          1           0        3.718081   -3.401286    0.893616
     39          1           0        2.187267   -3.439675   -0.000275
     40          6           0       -3.201026   -3.028821    0.000044
     41          1           0       -3.718009   -3.401274    0.893700
     42          1           0       -3.718602   -3.401302   -0.893249
     43          1           0       -2.187259   -3.439678   -0.000304
     44         27           0        0.000004   -1.250356    0.000083
 ---------------------------------------------------------------------

 SCF Done:  E(UPBE1PBE) =  -1212.11592071     A.U. after   23 cycles

 Alpha  occ. eigenvalues --  -14.45272 -14.45272 -14.45026 -14.45026 -10.28006
 Alpha  occ. eigenvalues --  -10.28005 -10.27403 -10.27402 -10.27290 -10.27290
 Alpha  occ. eigenvalues --  -10.27143 -10.27143 -10.26543 -10.26542 -10.23648
 Alpha  occ. eigenvalues --  -10.23648 -10.23541 -10.23541 -10.23049 -10.23048
 Alpha  occ. eigenvalues --  -10.22967 -10.22967 -10.22425 -10.22394 -10.22360
 Alpha  occ. eigenvalues --  -10.20903  -3.93488  -2.45467  -2.43735  -2.43225
 Alpha  occ. eigenvalues --   -1.05776  -1.05696  -0.97149  -0.96754  -0.88052
 Alpha  occ. eigenvalues --   -0.87631  -0.85611  -0.80472  -0.78871  -0.77630
 Alpha  occ. eigenvalues --   -0.77625  -0.75548  -0.74885  -0.73244  -0.72340
 Alpha  occ. eigenvalues --   -0.66729  -0.65334  -0.64379  -0.64082  -0.62713
 Alpha  occ. eigenvalues --   -0.61356  -0.58893  -0.57664  -0.56566  -0.53930
 Alpha  occ. eigenvalues --   -0.53064  -0.52267  -0.49766  -0.49685  -0.49180
 Alpha  occ. eigenvalues --   -0.48535  -0.48075  -0.47179  -0.46732  -0.45931
 Alpha  occ. eigenvalues --   -0.45690  -0.45317  -0.44869  -0.44822  -0.44153
 Alpha  occ. eigenvalues --   -0.42753  -0.41931  -0.41319  -0.38929  -0.38483
 Alpha  occ. eigenvalues --   -0.38449  -0.37689  -0.37347  -0.37172  -0.36913
 Alpha  occ. eigenvalues --   -0.36376  -0.34963  -0.34573  -0.33999  -0.31968
 Alpha  occ. eigenvalues --   -0.31385  -0.30404  -0.26914  -0.26850  -0.26635
 Alpha  occ. eigenvalues --   -0.26243  -0.26009  -0.24512  -0.24179  -0.22904
 Alpha  occ. eigenvalues --   -0.20873  -0.20638  -0.10131
 Alpha virt. eigenvalues --   -0.06323  -0.02900  -0.00174  -0.00012   0.00335
 Alpha virt. eigenvalues --    0.02287   0.02786   0.03606   0.03787   0.05585
 Alpha virt. eigenvalues --    0.06148   0.07675   0.07759   0.09682   0.10202

  Beta  occ. eigenvalues --  -14.45143 -14.45143 -14.44999 -14.44998 -10.27782
  Beta  occ. eigenvalues --  -10.27782 -10.27405 -10.27404 -10.27300 -10.27299
  Beta  occ. eigenvalues --  -10.27180 -10.27180 -10.26431 -10.26430 -10.23588
  Beta  occ. eigenvalues --  -10.23588 -10.23519 -10.23518 -10.23055 -10.23055
  Beta  occ. eigenvalues --  -10.22934 -10.22933 -10.22493 -10.22488 -10.22272
  Beta  occ. eigenvalues --  -10.21457  -3.85844  -2.37121  -2.36592  -2.34078
  Beta  occ. eigenvalues --   -1.05573  -1.05489  -0.96980  -0.96550  -0.88047
  Beta  occ. eigenvalues --   -0.87560  -0.85699  -0.80410  -0.78848  -0.77580
  Beta  occ. eigenvalues --   -0.77557  -0.75414  -0.74685  -0.73253  -0.72559
  Beta  occ. eigenvalues --   -0.66766  -0.65225  -0.64133  -0.64070  -0.62703
  Beta  occ. eigenvalues --   -0.61259  -0.58883  -0.57745  -0.56559  -0.53906
  Beta  occ. eigenvalues --   -0.53046  -0.52241  -0.49306  -0.49238  -0.49139
  Beta  occ. eigenvalues --   -0.48555  -0.48221  -0.47158  -0.46695  -0.45899
  Beta  occ. eigenvalues --   -0.45699  -0.45283  -0.44828  -0.44515  -0.43842
  Beta  occ. eigenvalues --   -0.42794  -0.41907  -0.41331  -0.38651  -0.38621
  Beta  occ. eigenvalues --   -0.38486  -0.37328  -0.37237  -0.36559  -0.36509
  Beta  occ. eigenvalues --   -0.35858  -0.35041  -0.34029  -0.33350  -0.31628
  Beta  occ. eigenvalues --   -0.29767  -0.27669  -0.26516  -0.25910  -0.24874
  Beta  occ. eigenvalues --   -0.23775  -0.23416  -0.21967  -0.20658  -0.19822
  Beta  occ. eigenvalues --   -0.19738
  Beta virt. eigenvalues --   -0.04496  -0.04030  -0.00697  -0.00438  -0.00021
  Beta virt. eigenvalues --    0.01324   0.01718   0.02452   0.03553   0.05385
  Beta virt. eigenvalues --    0.05660   0.05973   0.07903   0.08834   0.09286

 Mulliken charges and spin densities:
               1          2
     1  C   -0.245601  -0.323885
     2  C    0.391184   0.078570
     3  C   -0.213196  -0.063013
     4  C   -0.181950   0.089048
     5  C   -0.213186  -0.063009
     6  C    0.391169   0.078575
     7  H    0.168285  -0.003437
     8  H    0.164803  -0.004419
     9  H    0.168284  -0.003437
    10  C    0.316765  -0.000715
    11  C    0.370028   0.192323
    12  C    0.292555  -0.022516
    13  C   -0.196548   0.013737
    14  C   -0.216245   0.044008
    15  C   -0.190097   0.024754
    16  H    0.191020  -0.000948
    17  C   -0.183140  -0.009610
    18  H    0.173215  -0.002290
    19  H    0.170728  -0.001477
    20  H    0.168484   0.000151
    21  C    0.316830  -0.000712
    22  C    0.370020   0.192329
    23  C    0.292498  -0.022521
    24  C   -0.196580   0.013733
    25  C   -0.216215   0.044019
    26  C   -0.190101   0.024771
    27  H    0.191022  -0.000948
    28  C   -0.183135  -0.009620
    29  H    0.173212  -0.002290
    30  H    0.170729  -0.001478
    31  H    0.168479   0.000151
    32  N   -0.731441  -0.004945
    33  N   -0.586517   0.037384
    34  N   -0.731410  -0.004955
    35  N   -0.586538   0.037400
    36  C   -0.400557  -0.004465
    37  H    0.202045   0.002065
    38  H    0.202052   0.002069
    39  H    0.217093  -0.000792
    40  C   -0.400560  -0.004464
    41  H    0.202051   0.002068
    42  H    0.202044   0.002064
    43  H    0.217095  -0.000792
    44  Co  -0.028670   1.677520
 Sum of Mulliken charges =  -0.00000   2.00000

 Dipole moment (field-independent basis, Debye):
    X=              0.0004    Y=             -3.4487    Z=             -0.0002  Tot=              3.4487
 Quadrupole moment (field-independent basis, Debye-Ang):
   XX=           -136.6565   YY=           -133.0383   ZZ=           -173.8435
   XY=             -0.0004   XZ=             -0.0004   YZ=              0.0003

 Normal termination of Gaussian 16 at Wed Jul 17 21:17:42 2024.
