 Gaussian 16, Revision C.01,
 Gaussian 16:  ES64L-G16RevC.01  3-Jul-2019

 ----------------------------------------------------------------------
 # pbe1pbe em=gd3bj genecp g09default scf=(xqc,maxcycle=64) force guess
 =read nosymm
 ----------------------------------------------------------------------

 ----------
 Title Card
 ----------
 Symbolic Z-matrix:
 Charge =  0 Multiplicity = 1

                          Input orientation:
 ---------------------------------------------------------------------
 Center     Atomic      Atomic             Coordinates (Angstroms)
 Number     Number       Type             X           Y           Z
 ---------------------------------------------------------------------
      1          6           0        0.000001    0.671657    0.000070
      2          6           0       -1.216432    1.352113    0.000039
      3          6           0       -1.230557    2.750372    0.000000
      4          6           0       -0.000000    3.418813    0.000013
      5          6           0        1.230561    2.750372    0.000052
      6          6           0        1.216434    1.352114    0.000084
      7          1           0       -2.151471    3.322649   -0.000045
      8          1           0        0.000001    4.503023   -0.000011
      9          1           0        2.151473    3.322650    0.000051
     10          6           0        3.658826    0.574818   -0.000019
     11          6           0        1.889027   -0.896154    0.000093
     12          6           0        4.161429   -0.738915   -0.000102
     13          6           0        4.521112    1.664059   -0.000051
     14          6           0        5.527971   -1.002931   -0.000206
     15          6           0        5.894868    1.399384   -0.000168
     16          1           0        4.159034    2.683898    0.000014
     17          6           0        6.389063    0.096587   -0.000241
     18          1           0        5.906965   -2.018052   -0.000251
     19          1           0        6.589167    2.234838   -0.000196
     20          1           0        7.462393   -0.071255   -0.000322
     21          6           0       -3.658821    0.574813   -0.000031
     22          6           0       -1.889024   -0.896155    0.000038
     23          6           0       -4.161426   -0.738923   -0.000064
     24          6           0       -4.521113    1.664056   -0.000049
     25          6           0       -5.527961   -1.002937   -0.000104
     26          6           0       -5.894863    1.399374   -0.000096
     27          1           0       -4.159034    2.683893   -0.000021
     28          6           0       -6.389063    0.096578   -0.000121
     29          1           0       -5.906958   -2.018061   -0.000111
     30          1           0       -6.589167    2.234830   -0.000109
     31          1           0       -7.462386   -0.071266   -0.000150
     32          7           0       -2.272671    0.448191    0.000011
     33          7           0       -3.072807   -1.591617   -0.000039
     34          7           0        2.272677    0.448193    0.000091
     35          7           0        3.072815   -1.591619   -0.000048
     36          6           0        3.172515   -3.021690    0.000000
     37          1           0        3.703637   -3.375753   -0.892161
     38          1           0        3.703220   -3.375751    0.892421
     39          1           0        2.165237   -3.442033   -0.000240
     40          6           0       -3.172507   -3.021696    0.000040
     41          1           0       -3.703148   -3.375744    0.892499
     42          1           0       -3.703686   -3.375770   -0.892082
     43          1           0       -2.165227   -3.442035   -0.000267
     44         27           0        0.000004   -1.164844    0.000132
 ---------------------------------------------------------------------

 SCF Done:  E(UPBE1PBE) =  -1212.15203070     A.U. after   17 cycles

 Alpha  occ. eigenvalues --  -14.45511 -14.45510 -14.44742 -14.44741 -10.27502
 Alpha  occ. eigenvalues --  -10.27502 -10.27417 -10.27417 -10.27271 -10.27271
 Alpha  occ. eigenvalues --  -10.27196 -10.27195 -10.24753 -10.24753 -10.24165
 Alpha  occ. eigenvalues --  -10.24165 -10.23916 -10.23916 -10.23439 -10.23439
 Alpha  occ. eigenvalues --  -10.23370 -10.23370 -10.21418 -10.21414 -10.21099
 Alpha  occ. eigenvalues --  -10.18292  -3.83336  -2.35318  -2.34875  -2.31304
 Alpha  occ. eigenvalues --   -1.06078  -1.06000  -0.96486  -0.96077  -0.88175
 Alpha  occ. eigenvalues --   -0.87931  -0.84928  -0.79920  -0.78654  -0.77850
 Alpha  occ. eigenvalues --   -0.77808  -0.75660  -0.75069  -0.72527  -0.72260
 Alpha  occ. eigenvalues --   -0.66395  -0.64985  -0.64459  -0.63734  -0.62747
 Alpha  occ. eigenvalues --   -0.61233  -0.58868  -0.57361  -0.56342  -0.53958
 Alpha  occ. eigenvalues --   -0.53032  -0.51754  -0.49621  -0.49558  -0.49078
 Alpha  occ. eigenvalues --   -0.47871  -0.47527  -0.47072  -0.46771  -0.46026
 Alpha  occ. eigenvalues --   -0.45925  -0.45049  -0.44887  -0.44403  -0.43866
 Alpha  occ. eigenvalues --   -0.42061  -0.42006  -0.41273  -0.38480  -0.38449
 Alpha  occ. eigenvalues --   -0.38397  -0.37446  -0.37219  -0.36675  -0.36604
 Alpha  occ. eigenvalues --   -0.35673  -0.34471  -0.34464  -0.33536  -0.31395
 Alpha  occ. eigenvalues --   -0.28748  -0.26474  -0.26185  -0.25827  -0.24875
 Alpha  occ. eigenvalues --   -0.24491  -0.21418  -0.21304  -0.20530  -0.16062
 Alpha  occ. eigenvalues --   -0.15591  -0.15065
 Alpha virt. eigenvalues --   -0.04174  -0.02173  -0.00444   0.00170   0.00965
 Alpha virt. eigenvalues --    0.01459   0.02081   0.03579   0.05496   0.05956
 Alpha virt. eigenvalues --    0.06792   0.07619   0.09324   0.09331   0.10131

  Beta  occ. eigenvalues --  -14.45511 -14.45510 -14.44742 -14.44741 -10.27502
  Beta  occ. eigenvalues --  -10.27502 -10.27417 -10.27417 -10.27271 -10.27271
  Beta  occ. eigenvalues --  -10.27196 -10.27195 -10.24753 -10.24753 -10.24165
  Beta  occ. eigenvalues --  -10.24165 -10.23916 -10.23916 -10.23439 -10.23439
  Beta  occ. eigenvalues --  -10.23370 -10.23370 -10.21418 -10.21414 -10.21099
  Beta  occ. eigenvalues --  -10.18292  -3.83336  -2.35318  -2.34875  -2.31304
  Beta  occ. eigenvalues --   -1.06078  -1.06000  -0.96486  -0.96077  -0.88175
  Beta  occ. eigenvalues --   -0.87931  -0.84928  -0.79920  -0.78654  -0.77850
  Beta  occ. eigenvalues --   -0.77808  -0.75660  -0.75069  -0.72527  -0.72260
  Beta  occ. eigenvalues --   -0.66395  -0.64985  -0.64459  -0.63734  -0.62747
  Beta  occ. eigenvalues --   -0.61233  -0.58868  -0.57361  -0.56342  -0.53958
  Beta  occ. eigenvalues --   -0.53032  -0.51754  -0.49621  -0.49558  -0.49078
  Beta  occ. eigenvalues --   -0.47871  -0.47527  -0.47072  -0.46771  -0.46026
  Beta  occ. eigenvalues --   -0.45925  -0.45049  -0.44887  -0.44403  -0.43866
  Beta  occ. eigenvalues --   -0.42061  -0.42006  -0.41273  -0.38480  -0.38449
  Beta  occ. eigenvalues --   -0.38397  -0.37446  -0.37219  -0.36675  -0.36604
  Beta  occ. eigenvalues --   -0.35673  -0.34471  -0.34464  -0.33536  -0.31395
  Beta  occ. eigenvalues --   -0.28748  -0.26474  -0.26185  -0.25827  -0.24875
  Beta  occ. eigenvalues --   -0.24491  -0.21418  -0.21304  -0.20530  -0.16062
  Beta  occ. eigenvalues --   -0.15591  -0.15065
  Beta virt. eigenvalues --   -0.04174  -0.02173  -0.00444   0.00170   0.00965
  Beta virt. eigenvalues --    0.01459   0.02081   0.03579   0.05496   0.05956
  Beta virt. eigenvalues --    0.06792   0.07619   0.09324   0.09331   0.10131

 Mulliken charges and spin densities:
               1          2
     1  C   -0.211679  -0.000000
     2  C    0.296507   0.000000
     3  C   -0.189444  -0.000000
     4  C   -0.205932   0.000000
     5  C   -0.189445  -0.000000
     6  C    0.296508   0.000000
     7  H    0.162268  -0.000000
     8  H    0.157973  -0.000000
     9  H    0.162268  -0.000000
    10  C    0.309582   0.000000
    11  C    0.406540  -0.000000
    12  C    0.283692   0.000000
    13  C   -0.186269  -0.000000
    14  C   -0.205847  -0.000000
    15  C   -0.188018  -0.000000
    16  H    0.196008   0.000000
    17  C   -0.185704  -0.000000
    18  H    0.176895   0.000000
    19  H    0.172956   0.000000
    20  H    0.171429   0.000000
    21  C    0.309573   0.000000
    22  C    0.406542  -0.000000
    23  C    0.283699   0.000000
    24  C   -0.186263  -0.000000
    25  C   -0.205852  -0.000000
    26  C   -0.188021  -0.000000
    27  H    0.196008   0.000000
    28  C   -0.185703  -0.000000
    29  H    0.176894   0.000000
    30  H    0.172955   0.000000
    31  H    0.171431   0.000000
    32  N   -0.709356  -0.000000
    33  N   -0.597855  -0.000000
    34  N   -0.709359  -0.000000
    35  N   -0.597852  -0.000000
    36  C   -0.399603  -0.000000
    37  H    0.201608  -0.000000
    38  H    0.201617  -0.000000
    39  H    0.223522  -0.000000
    40  C   -0.399602  -0.000000
    41  H    0.201619  -0.000000
    42  H    0.201609  -0.000000
    43  H    0.223522  -0.000000
    44  Co  -0.021421   0.000000
 Sum of Mulliken charges =  -0.00000  -0.00000

 Dipole moment (field-independent basis, Debye):
    X=             -0.0001    Y=             -3.5822    Z=             -0.0001  Tot=              3.5822
 Quadrupole moment (field-independent basis, Debye-Ang):
   XX=           -126.6316   YY=           -134.2611   ZZ=           -172.1093
   XY=              0.0002   XZ=             -0.0005   YZ=             -0.0001

 Normal termination of Gaussian 16 at Wed Jul 17 20:38:33 2024.
