 Gaussian 16, Revision C.01,
 Gaussian 16:  ES64L-G16RevC.01  3-Jul-2019

 ----------------------------------------------------------------------
 # pbe1pbe em=gd3bj genecp g09default scf=(xqc,maxcycle=64) force guess
 =read nosymm
 ----------------------------------------------------------------------

 ----------
 Title Card
 ----------
 Symbolic Z-matrix:
 Charge =  0 Multiplicity = 3

                          Input orientation:
 ---------------------------------------------------------------------
 Center     Atomic      Atomic             Coordinates (Angstroms)
 Number     Number       Type             X           Y           Z
 ---------------------------------------------------------------------
      1          6           0        0.000001    0.671657    0.000070
      2          6           0       -1.216432    1.352113    0.000039
      3          6           0       -1.230557    2.750372    0.000000
      4          6           0       -0.000000    3.418813    0.000013
      5          6           0        1.230561    2.750372    0.000052
      6          6           0        1.216434    1.352114    0.000084
      7          1           0       -2.151471    3.322649   -0.000045
      8          1           0        0.000001    4.503023   -0.000011
      9          1           0        2.151473    3.322650    0.000051
     10          6           0        3.658826    0.574818   -0.000019
     11          6           0        1.889027   -0.896154    0.000093
     12          6           0        4.161429   -0.738915   -0.000102
     13          6           0        4.521112    1.664059   -0.000051
     14          6           0        5.527971   -1.002931   -0.000206
     15          6           0        5.894868    1.399384   -0.000168
     16          1           0        4.159034    2.683898    0.000014
     17          6           0        6.389063    0.096587   -0.000241
     18          1           0        5.906965   -2.018052   -0.000251
     19          1           0        6.589167    2.234838   -0.000196
     20          1           0        7.462393   -0.071255   -0.000322
     21          6           0       -3.658821    0.574813   -0.000031
     22          6           0       -1.889024   -0.896155    0.000038
     23          6           0       -4.161426   -0.738923   -0.000064
     24          6           0       -4.521113    1.664056   -0.000049
     25          6           0       -5.527961   -1.002937   -0.000104
     26          6           0       -5.894863    1.399374   -0.000096
     27          1           0       -4.159034    2.683893   -0.000021
     28          6           0       -6.389063    0.096578   -0.000121
     29          1           0       -5.906958   -2.018061   -0.000111
     30          1           0       -6.589167    2.234830   -0.000109
     31          1           0       -7.462386   -0.071266   -0.000150
     32          7           0       -2.272671    0.448191    0.000011
     33          7           0       -3.072807   -1.591617   -0.000039
     34          7           0        2.272677    0.448193    0.000091
     35          7           0        3.072815   -1.591619   -0.000048
     36          6           0        3.172515   -3.021690    0.000000
     37          1           0        3.703637   -3.375753   -0.892161
     38          1           0        3.703220   -3.375751    0.892421
     39          1           0        2.165237   -3.442033   -0.000240
     40          6           0       -3.172507   -3.021696    0.000040
     41          1           0       -3.703148   -3.375744    0.892499
     42          1           0       -3.703686   -3.375770   -0.892082
     43          1           0       -2.165227   -3.442035   -0.000267
     44         27           0        0.000004   -1.164844    0.000132
 ---------------------------------------------------------------------

 SCF Done:  E(UPBE1PBE) =  -1212.13735822     A.U. after   28 cycles

 Alpha  occ. eigenvalues --  -14.45070 -14.45070 -14.44595 -14.44594 -10.27378
 Alpha  occ. eigenvalues --  -10.27377 -10.27242 -10.27242 -10.27219 -10.27219
 Alpha  occ. eigenvalues --  -10.26998 -10.26997 -10.26177 -10.26177 -10.23663
 Alpha  occ. eigenvalues --  -10.23663 -10.23517 -10.23517 -10.23026 -10.23026
 Alpha  occ. eigenvalues --  -10.22920 -10.22920 -10.22470 -10.22249 -10.22244
 Alpha  occ. eigenvalues --  -10.19717  -3.93661  -2.46489  -2.43610  -2.42709
 Alpha  occ. eigenvalues --   -1.05996  -1.05899  -0.96622  -0.96132  -0.88035
 Alpha  occ. eigenvalues --   -0.87636  -0.85624  -0.80082  -0.78894  -0.77644
 Alpha  occ. eigenvalues --   -0.77533  -0.75648  -0.75017  -0.72879  -0.72807
 Alpha  occ. eigenvalues --   -0.66614  -0.65147  -0.64314  -0.63812  -0.62876
 Alpha  occ. eigenvalues --   -0.61232  -0.58860  -0.57873  -0.56310  -0.53822
 Alpha  occ. eigenvalues --   -0.52961  -0.52013  -0.49727  -0.49638  -0.49378
 Alpha  occ. eigenvalues --   -0.48180  -0.47377  -0.47137  -0.46888  -0.45863
 Alpha  occ. eigenvalues --   -0.45786  -0.45109  -0.44829  -0.44741  -0.44001
 Alpha  occ. eigenvalues --   -0.42374  -0.42073  -0.41575  -0.39004  -0.38918
 Alpha  occ. eigenvalues --   -0.38630  -0.38046  -0.37419  -0.37264  -0.36759
 Alpha  occ. eigenvalues --   -0.36300  -0.34883  -0.34687  -0.33728  -0.32177
 Alpha  occ. eigenvalues --   -0.31742  -0.30296  -0.30085  -0.27243  -0.26988
 Alpha  occ. eigenvalues --   -0.26502  -0.26064  -0.24592  -0.23729  -0.22867
 Alpha  occ. eigenvalues --   -0.20775  -0.20774  -0.09859
 Alpha virt. eigenvalues --   -0.05682  -0.02196  -0.00093   0.00274   0.00323
 Alpha virt. eigenvalues --    0.02330   0.02973   0.03856   0.04557   0.05640
 Alpha virt. eigenvalues --    0.06492   0.07919   0.08042   0.09806   0.10244

  Beta  occ. eigenvalues --  -14.44933 -14.44933 -14.44564 -14.44563 -10.27251
  Beta  occ. eigenvalues --  -10.27251 -10.27225 -10.27225 -10.27163 -10.27162
  Beta  occ. eigenvalues --  -10.27032 -10.27032 -10.26019 -10.26019 -10.23606
  Beta  occ. eigenvalues --  -10.23606 -10.23491 -10.23491 -10.23029 -10.23029
  Beta  occ. eigenvalues --  -10.22890 -10.22890 -10.22370 -10.22356 -10.22276
  Beta  occ. eigenvalues --  -10.20009  -3.87161  -2.38896  -2.38144  -2.34817
  Beta  occ. eigenvalues --   -1.05781  -1.05684  -0.96408  -0.95905  -0.87974
  Beta  occ. eigenvalues --   -0.87560  -0.85574  -0.79980  -0.78833  -0.77579
  Beta  occ. eigenvalues --   -0.77455  -0.75491  -0.74817  -0.72877  -0.72832
  Beta  occ. eigenvalues --   -0.66634  -0.64863  -0.64082  -0.63812  -0.62800
  Beta  occ. eigenvalues --   -0.61128  -0.58816  -0.57802  -0.56270  -0.53765
  Beta  occ. eigenvalues --   -0.52921  -0.51935  -0.49380  -0.49253  -0.49184
  Beta  occ. eigenvalues --   -0.48118  -0.47335  -0.47115  -0.46807  -0.45821
  Beta  occ. eigenvalues --   -0.45770  -0.45056  -0.44809  -0.44322  -0.43682
  Beta  occ. eigenvalues --   -0.42378  -0.42040  -0.41569  -0.39043  -0.38615
  Beta  occ. eigenvalues --   -0.38455  -0.37497  -0.37245  -0.36649  -0.36312
  Beta  occ. eigenvalues --   -0.36266  -0.34880  -0.34122  -0.33074  -0.31352
  Beta  occ. eigenvalues --   -0.30609  -0.29491  -0.26298  -0.26109  -0.25186
  Beta  occ. eigenvalues --   -0.24703  -0.23912  -0.21997  -0.21013  -0.20514
  Beta  occ. eigenvalues --   -0.19929
  Beta virt. eigenvalues --   -0.04599  -0.04140  -0.01410  -0.00342   0.00102
  Beta virt. eigenvalues --    0.01262   0.01719   0.02477   0.03743   0.05706
  Beta virt. eigenvalues --    0.06010   0.06134   0.08130   0.09190   0.09220

 Mulliken charges and spin densities:
               1          2
     1  C   -0.302525  -0.172305
     2  C    0.342804   0.104223
     3  C   -0.190403  -0.077247
     4  C   -0.200462   0.129040
     5  C   -0.190405  -0.077247
     6  C    0.342805   0.104222
     7  H    0.171909   0.000969
     8  H    0.166360  -0.006710
     9  H    0.171909   0.000969
    10  C    0.310370  -0.002926
    11  C    0.372591   0.183540
    12  C    0.286801  -0.020901
    13  C   -0.191263   0.017325
    14  C   -0.212020   0.041212
    15  C   -0.189904   0.021168
    16  H    0.190151  -0.001094
    17  C   -0.185215  -0.005324
    18  H    0.173456  -0.002172
    19  H    0.169700  -0.001312
    20  H    0.168908  -0.000047
    21  C    0.310360  -0.002926
    22  C    0.372595   0.183535
    23  C    0.286809  -0.020901
    24  C   -0.191258   0.017324
    25  C   -0.212025   0.041211
    26  C   -0.189906   0.021167
    27  H    0.190151  -0.001093
    28  C   -0.185214  -0.005324
    29  H    0.173456  -0.002172
    30  H    0.169699  -0.001311
    31  H    0.168909  -0.000047
    32  N   -0.716183  -0.003404
    33  N   -0.602832   0.040601
    34  N   -0.716186  -0.003403
    35  N   -0.602829   0.040601
    36  C   -0.398062  -0.004562
    37  H    0.202114   0.002174
    38  H    0.202119   0.002177
    39  H    0.214311  -0.000489
    40  C   -0.398061  -0.004562
    41  H    0.202121   0.002177
    42  H    0.202114   0.002174
    43  H    0.214311  -0.000489
    44  Co   0.097920   1.462158
 Sum of Mulliken charges =  -0.00000   2.00000

 Dipole moment (field-independent basis, Debye):
    X=             -0.0001    Y=             -3.3695    Z=             -0.0000  Tot=              3.3695
 Quadrupole moment (field-independent basis, Debye-Ang):
   XX=           -136.4278   YY=           -132.3669   ZZ=           -173.8406
   XY=              0.0002   XZ=             -0.0004   YZ=             -0.0003

 Normal termination of Gaussian 16 at Wed Jul 17 20:37:56 2024.
