 Gaussian 16, Revision C.01,
 Gaussian 16:  ES64L-G16RevC.01  3-Jul-2019

 ----------------------------------------------------------------------
 # pbe1pbe em=gd3bj genecp g09default scf=(xqc,maxcycle=64) force guess
 =read nosymm
 ----------------------------------------------------------------------

 ----------
 Title Card
 ----------
 Symbolic Z-matrix:
 Charge =  0 Multiplicity = 1

                          Input orientation:
 ---------------------------------------------------------------------
 Center     Atomic      Atomic             Coordinates (Angstroms)
 Number     Number       Type             X           Y           Z
 ---------------------------------------------------------------------
      1          6           0        0.000009    0.786166    0.000102
      2          6           0       -1.277005    1.356914    0.000034
      3          6           0       -1.244633    2.753232   -0.000010
      4          6           0       -0.000001    3.402608    0.000007
      5          6           0        1.244641    2.753225    0.000038
      6          6           0        1.276993    1.356924    0.000073
      7          1           0       -2.156838    3.335118   -0.000044
      8          1           0        0.000001    4.489507   -0.000009
      9          1           0        2.156843    3.335117    0.000045
     10          6           0        3.689638    0.581475   -0.000029
     11          6           0        1.918232   -0.907474    0.000134
     12          6           0        4.185970   -0.742862   -0.000098
     13          6           0        4.547263    1.664739   -0.000060
     14          6           0        5.548769   -0.999587   -0.000199
     15          6           0        5.929010    1.403479   -0.000171
     16          1           0        4.177548    2.682566    0.000007
     17          6           0        6.415195    0.104476   -0.000243
     18          1           0        5.926203   -2.017516   -0.000241
     19          1           0        6.619061    2.241410   -0.000196
     20          1           0        7.486605   -0.069102   -0.000327
     21          6           0       -3.689613    0.581444   -0.000042
     22          6           0       -1.918232   -0.907480    0.000101
     23          6           0       -4.185991   -0.742866   -0.000072
     24          6           0       -4.547279    1.664759   -0.000056
     25          6           0       -5.548740   -0.999593   -0.000101
     26          6           0       -5.929003    1.403464   -0.000101
     27          1           0       -4.177549    2.682553   -0.000024
     28          6           0       -6.415199    0.104474   -0.000124
     29          1           0       -5.926197   -2.017527   -0.000102
     30          1           0       -6.619065    2.241404   -0.000109
     31          1           0       -7.486599   -0.069114   -0.000153
     32          7           0       -2.304277    0.471199    0.000016
     33          7           0       -3.116244   -1.603777   -0.000049
     34          7           0        2.304285    0.471188    0.000080
     35          7           0        3.116263   -1.603777   -0.000038
     36          6           0        3.199513   -3.028561    0.000008
     37          1           0        3.717687   -3.399033   -0.893298
     38          1           0        3.717225   -3.399046    0.893582
     39          1           0        2.186144   -3.440576   -0.000273
     40          6           0       -3.199508   -3.028569    0.000044
     41          1           0       -3.717152   -3.399033    0.893664
     42          1           0       -3.717741   -3.399061   -0.893214
     43          1           0       -2.186135   -3.440578   -0.000303
     44         27           0        0.000006   -1.238230    0.000094
 ---------------------------------------------------------------------

 SCF Done:  E(UPBE1PBE) =  -1212.12095921     A.U. after   14 cycles

 Alpha  occ. eigenvalues --  -14.45789 -14.45789 -14.45191 -14.45191 -10.28276
 Alpha  occ. eigenvalues --  -10.28276 -10.27648 -10.27647 -10.27436 -10.27436
 Alpha  occ. eigenvalues --  -10.27296 -10.27295 -10.25191 -10.25191 -10.24156
 Alpha  occ. eigenvalues --  -10.24156 -10.23923 -10.23923 -10.23468 -10.23468
 Alpha  occ. eigenvalues --  -10.23413 -10.23413 -10.21456 -10.21452 -10.21151
 Alpha  occ. eigenvalues --  -10.19049  -3.83129  -2.34880  -2.34814  -2.31054
 Alpha  occ. eigenvalues --   -1.05953  -1.05887  -0.97110  -0.96778  -0.88216
 Alpha  occ. eigenvalues --   -0.87965  -0.84960  -0.80335  -0.78798  -0.77938
 Alpha  occ. eigenvalues --   -0.77842  -0.75587  -0.75055  -0.72943  -0.71853
 Alpha  occ. eigenvalues --   -0.66579  -0.65182  -0.64539  -0.64106  -0.62646
 Alpha  occ. eigenvalues --   -0.61423  -0.58922  -0.57255  -0.56646  -0.54122
 Alpha  occ. eigenvalues --   -0.53218  -0.51978  -0.49727  -0.49669  -0.49064
 Alpha  occ. eigenvalues --   -0.48206  -0.47900  -0.47468  -0.46650  -0.46167
 Alpha  occ. eigenvalues --   -0.45816  -0.45340  -0.45044  -0.44617  -0.44082
 Alpha  occ. eigenvalues --   -0.42397  -0.41929  -0.41099  -0.38546  -0.38423
 Alpha  occ. eigenvalues --   -0.38317  -0.37492  -0.36872  -0.36790  -0.36734
 Alpha  occ. eigenvalues --   -0.35147  -0.34661  -0.34445  -0.33875  -0.31599
 Alpha  occ. eigenvalues --   -0.28956  -0.26645  -0.25931  -0.24785  -0.24471
 Alpha  occ. eigenvalues --   -0.22255  -0.21281  -0.20558  -0.20206  -0.16362
 Alpha  occ. eigenvalues --   -0.15328  -0.14871
 Alpha virt. eigenvalues --   -0.04488  -0.02458  -0.00639  -0.00090   0.00863
 Alpha virt. eigenvalues --    0.01339   0.02028   0.03312   0.05361   0.05922
 Alpha virt. eigenvalues --    0.06293   0.07334   0.08976   0.09319   0.10109

  Beta  occ. eigenvalues --  -14.45789 -14.45789 -14.45191 -14.45191 -10.28276
  Beta  occ. eigenvalues --  -10.28276 -10.27648 -10.27647 -10.27436 -10.27436
  Beta  occ. eigenvalues --  -10.27296 -10.27295 -10.25191 -10.25191 -10.24156
  Beta  occ. eigenvalues --  -10.24156 -10.23923 -10.23923 -10.23468 -10.23468
  Beta  occ. eigenvalues --  -10.23413 -10.23413 -10.21456 -10.21452 -10.21151
  Beta  occ. eigenvalues --  -10.19049  -3.83129  -2.34880  -2.34814  -2.31054
  Beta  occ. eigenvalues --   -1.05953  -1.05887  -0.97110  -0.96778  -0.88216
  Beta  occ. eigenvalues --   -0.87965  -0.84960  -0.80335  -0.78798  -0.77938
  Beta  occ. eigenvalues --   -0.77842  -0.75587  -0.75055  -0.72943  -0.71853
  Beta  occ. eigenvalues --   -0.66579  -0.65182  -0.64539  -0.64106  -0.62646
  Beta  occ. eigenvalues --   -0.61423  -0.58922  -0.57255  -0.56646  -0.54122
  Beta  occ. eigenvalues --   -0.53218  -0.51978  -0.49727  -0.49669  -0.49064
  Beta  occ. eigenvalues --   -0.48206  -0.47900  -0.47468  -0.46650  -0.46167
  Beta  occ. eigenvalues --   -0.45816  -0.45340  -0.45044  -0.44617  -0.44082
  Beta  occ. eigenvalues --   -0.42397  -0.41929  -0.41099  -0.38546  -0.38423
  Beta  occ. eigenvalues --   -0.38317  -0.37492  -0.36872  -0.36790  -0.36734
  Beta  occ. eigenvalues --   -0.35147  -0.34661  -0.34445  -0.33875  -0.31599
  Beta  occ. eigenvalues --   -0.28956  -0.26645  -0.25931  -0.24785  -0.24471
  Beta  occ. eigenvalues --   -0.22255  -0.21281  -0.20558  -0.20206  -0.16362
  Beta  occ. eigenvalues --   -0.15328  -0.14871
  Beta virt. eigenvalues --   -0.04488  -0.02458  -0.00639  -0.00090   0.00863
  Beta virt. eigenvalues --    0.01339   0.02028   0.03312   0.05361   0.05922
  Beta virt. eigenvalues --    0.06293   0.07334   0.08976   0.09319   0.10109

 Mulliken charges and spin densities:
               1          2
     1  C   -0.180639  -0.000003
     2  C    0.342229   0.000000
     3  C   -0.210172  -0.000000
     4  C   -0.186330   0.000000
     5  C   -0.210180  -0.000000
     6  C    0.342241   0.000000
     7  H    0.157201  -0.000000
     8  H    0.156743  -0.000000
     9  H    0.157202  -0.000000
    10  C    0.313960   0.000000
    11  C    0.407669  -0.000001
    12  C    0.292389   0.000000
    13  C   -0.190423  -0.000000
    14  C   -0.211692  -0.000000
    15  C   -0.187841  -0.000000
    16  H    0.197063   0.000000
    17  C   -0.184239   0.000000
    18  H    0.176772   0.000000
    19  H    0.173936   0.000000
    20  H    0.171232  -0.000000
    21  C    0.313909   0.000000
    22  C    0.407673  -0.000001
    23  C    0.292428   0.000000
    24  C   -0.190401  -0.000000
    25  C   -0.211715  -0.000000
    26  C   -0.187838  -0.000000
    27  H    0.197062   0.000000
    28  C   -0.184239   0.000000
    29  H    0.176775   0.000000
    30  H    0.173934   0.000000
    31  H    0.171235  -0.000000
    32  N   -0.722031  -0.000000
    33  N   -0.584585  -0.000000
    34  N   -0.722056  -0.000000
    35  N   -0.584573  -0.000000
    36  C   -0.401739  -0.000000
    37  H    0.202198   0.000000
    38  H    0.202208  -0.000000
    39  H    0.225661  -0.000000
    40  C   -0.401737  -0.000000
    41  H    0.202210  -0.000000
    42  H    0.202199   0.000000
    43  H    0.225660  -0.000000
    44  Co  -0.129360   0.000005
 Sum of Mulliken charges =  -0.00000   0.00000

 Dipole moment (field-independent basis, Debye):
    X=             -0.0002    Y=             -3.6812    Z=             -0.0003  Tot=              3.6812
 Quadrupole moment (field-independent basis, Debye-Ang):
   XX=           -126.2245   YY=           -134.6494   ZZ=           -172.2431
   XY=              0.0005   XZ=             -0.0005   YZ=              0.0005

 Normal termination of Gaussian 16 at Wed Jul 17 21:19:28 2024.
