 Gaussian 16, Revision C.01,
 Gaussian 16:  ES64L-G16RevC.01  3-Jul-2019

 ----------------------------------------------------------------------
 # pbe1pbe em=gd3bj genecp g09default scf=(xqc,maxcycle=64) force guess
 =read nosymm
 ----------------------------------------------------------------------

 ----------
 Title Card
 ----------
 Symbolic Z-matrix:
 Charge =  0 Multiplicity = 3

                          Input orientation:
 ---------------------------------------------------------------------
 Center     Atomic      Atomic             Coordinates (Angstroms)
 Number     Number       Type             X           Y           Z
 ---------------------------------------------------------------------
      1          6           0        0.000009    0.786166    0.000102
      2          6           0       -1.277005    1.356914    0.000034
      3          6           0       -1.244633    2.753232   -0.000010
      4          6           0       -0.000001    3.402608    0.000007
      5          6           0        1.244641    2.753225    0.000038
      6          6           0        1.276993    1.356924    0.000073
      7          1           0       -2.156838    3.335118   -0.000044
      8          1           0        0.000001    4.489507   -0.000009
      9          1           0        2.156843    3.335117    0.000045
     10          6           0        3.689638    0.581475   -0.000029
     11          6           0        1.918232   -0.907474    0.000134
     12          6           0        4.185970   -0.742862   -0.000098
     13          6           0        4.547263    1.664739   -0.000060
     14          6           0        5.548769   -0.999587   -0.000199
     15          6           0        5.929010    1.403479   -0.000171
     16          1           0        4.177548    2.682566    0.000007
     17          6           0        6.415195    0.104476   -0.000243
     18          1           0        5.926203   -2.017516   -0.000241
     19          1           0        6.619061    2.241410   -0.000196
     20          1           0        7.486605   -0.069102   -0.000327
     21          6           0       -3.689613    0.581444   -0.000042
     22          6           0       -1.918232   -0.907480    0.000101
     23          6           0       -4.185991   -0.742866   -0.000072
     24          6           0       -4.547279    1.664759   -0.000056
     25          6           0       -5.548740   -0.999593   -0.000101
     26          6           0       -5.929003    1.403464   -0.000101
     27          1           0       -4.177549    2.682553   -0.000024
     28          6           0       -6.415199    0.104474   -0.000124
     29          1           0       -5.926197   -2.017527   -0.000102
     30          1           0       -6.619065    2.241404   -0.000109
     31          1           0       -7.486599   -0.069114   -0.000153
     32          7           0       -2.304277    0.471199    0.000016
     33          7           0       -3.116244   -1.603777   -0.000049
     34          7           0        2.304285    0.471188    0.000080
     35          7           0        3.116263   -1.603777   -0.000038
     36          6           0        3.199513   -3.028561    0.000008
     37          1           0        3.717687   -3.399033   -0.893298
     38          1           0        3.717225   -3.399046    0.893582
     39          1           0        2.186144   -3.440576   -0.000273
     40          6           0       -3.199508   -3.028569    0.000044
     41          1           0       -3.717152   -3.399033    0.893664
     42          1           0       -3.717741   -3.399061   -0.893214
     43          1           0       -2.186135   -3.440578   -0.000303
     44         27           0        0.000006   -1.238230    0.000094
 ---------------------------------------------------------------------

 SCF Done:  E(UPBE1PBE) =  -1212.11829086     A.U. after   28 cycles

 Alpha  occ. eigenvalues --  -14.45260 -14.45259 -14.45001 -14.45000 -10.27962
 Alpha  occ. eigenvalues --  -10.27962 -10.27416 -10.27416 -10.27289 -10.27289
 Alpha  occ. eigenvalues --  -10.27118 -10.27118 -10.26504 -10.26503 -10.23636
 Alpha  occ. eigenvalues --  -10.23636 -10.23524 -10.23524 -10.23043 -10.23043
 Alpha  occ. eigenvalues --  -10.22954 -10.22954 -10.22382 -10.22324 -10.22306
 Alpha  occ. eigenvalues --  -10.20781  -3.93492  -2.45539  -2.43713  -2.43163
 Alpha  occ. eigenvalues --   -1.05801  -1.05719  -0.97169  -0.96776  -0.88060
 Alpha  occ. eigenvalues --   -0.87653  -0.85577  -0.80457  -0.78872  -0.77660
 Alpha  occ. eigenvalues --   -0.77655  -0.75530  -0.74917  -0.73214  -0.72371
 Alpha  occ. eigenvalues --   -0.66777  -0.65323  -0.64359  -0.64111  -0.62717
 Alpha  occ. eigenvalues --   -0.61366  -0.58913  -0.57650  -0.56583  -0.53958
 Alpha  occ. eigenvalues --   -0.53087  -0.52233  -0.49775  -0.49692  -0.49150
 Alpha  occ. eigenvalues --   -0.48510  -0.48147  -0.47200  -0.46752  -0.45908
 Alpha  occ. eigenvalues --   -0.45719  -0.45321  -0.44898  -0.44839  -0.44182
 Alpha  occ. eigenvalues --   -0.42727  -0.41940  -0.41317  -0.38931  -0.38544
 Alpha  occ. eigenvalues --   -0.38455  -0.37698  -0.37282  -0.37147  -0.36933
 Alpha  occ. eigenvalues --   -0.36383  -0.35049  -0.34569  -0.33998  -0.31970
 Alpha  occ. eigenvalues --   -0.31432  -0.30339  -0.27033  -0.26883  -0.26632
 Alpha  occ. eigenvalues --   -0.26357  -0.25989  -0.24574  -0.24124  -0.22920
 Alpha  occ. eigenvalues --   -0.20794  -0.20613  -0.10120
 Alpha virt. eigenvalues --   -0.06248  -0.02843  -0.00233   0.00019   0.00355
 Alpha virt. eigenvalues --    0.02277   0.02815   0.03707   0.03847   0.05590
 Alpha virt. eigenvalues --    0.06191   0.07715   0.07770   0.09719   0.10233

  Beta  occ. eigenvalues --  -14.45127 -14.45127 -14.44974 -14.44974 -10.27736
  Beta  occ. eigenvalues --  -10.27736 -10.27419 -10.27418 -10.27299 -10.27298
  Beta  occ. eigenvalues --  -10.27155 -10.27155 -10.26388 -10.26387 -10.23577
  Beta  occ. eigenvalues --  -10.23577 -10.23502 -10.23501 -10.23050 -10.23050
  Beta  occ. eigenvalues --  -10.22922 -10.22921 -10.22426 -10.22420 -10.22240
  Beta  occ. eigenvalues --  -10.21306  -3.85968  -2.37290  -2.36735  -2.34144
  Beta  occ. eigenvalues --   -1.05596  -1.05509  -0.96994  -0.96568  -0.88046
  Beta  occ. eigenvalues --   -0.87581  -0.85657  -0.80391  -0.78847  -0.77609
  Beta  occ. eigenvalues --   -0.77586  -0.75389  -0.74716  -0.73225  -0.72571
  Beta  occ. eigenvalues --   -0.66813  -0.65205  -0.64110  -0.64090  -0.62699
  Beta  occ. eigenvalues --   -0.61268  -0.58900  -0.57717  -0.56572  -0.53930
  Beta  occ. eigenvalues --   -0.53068  -0.52202  -0.49308  -0.49240  -0.49108
  Beta  occ. eigenvalues --   -0.48525  -0.48282  -0.47177  -0.46706  -0.45875
  Beta  occ. eigenvalues --   -0.45722  -0.45287  -0.44842  -0.44540  -0.43870
  Beta  occ. eigenvalues --   -0.42761  -0.41916  -0.41327  -0.38641  -0.38578
  Beta  occ. eigenvalues --   -0.38575  -0.37266  -0.37235  -0.36541  -0.36529
  Beta  occ. eigenvalues --   -0.35889  -0.35117  -0.34020  -0.33342  -0.31620
  Beta  occ. eigenvalues --   -0.29709  -0.27853  -0.26470  -0.25903  -0.24920
  Beta  occ. eigenvalues --   -0.23841  -0.23551  -0.21941  -0.20649  -0.19807
  Beta  occ. eigenvalues --   -0.19772
  Beta virt. eigenvalues --   -0.04477  -0.04041  -0.00643  -0.00503  -0.00079
  Beta virt. eigenvalues --    0.01316   0.01700   0.02455   0.03578   0.05420
  Beta virt. eigenvalues --    0.05747   0.05977   0.07925   0.08856   0.09316

 Mulliken charges and spin densities:
               1          2
     1  C   -0.249957  -0.307522
     2  C    0.387884   0.080276
     3  C   -0.211060  -0.064228
     4  C   -0.183192   0.090902
     5  C   -0.211067  -0.064228
     6  C    0.387895   0.080269
     7  H    0.168293  -0.002902
     8  H    0.164370  -0.004513
     9  H    0.168294  -0.002902
    10  C    0.314158  -0.000798
    11  C    0.369156   0.193993
    12  C    0.295360  -0.022242
    13  C   -0.195060   0.013800
    14  C   -0.217904   0.043340
    15  C   -0.189993   0.023972
    16  H    0.190994  -0.000943
    17  C   -0.183524  -0.009123
    18  H    0.173270  -0.002257
    19  H    0.170565  -0.001435
    20  H    0.168682   0.000131
    21  C    0.314106  -0.000800
    22  C    0.369159   0.194005
    23  C    0.295400  -0.022239
    24  C   -0.195038   0.013802
    25  C   -0.217926   0.043335
    26  C   -0.189990   0.023962
    27  H    0.190993  -0.000943
    28  C   -0.183525  -0.009118
    29  H    0.173273  -0.002257
    30  H    0.170563  -0.001435
    31  H    0.168684   0.000131
    32  N   -0.728617  -0.005369
    33  N   -0.588565   0.038439
    34  N   -0.728642  -0.005361
    35  N   -0.588552   0.038427
    36  C   -0.400321  -0.004567
    37  H    0.202145   0.002128
    38  H    0.202152   0.002131
    39  H    0.216789  -0.000750
    40  C   -0.400319  -0.004568
    41  H    0.202153   0.002133
    42  H    0.202145   0.002128
    43  H    0.216788  -0.000750
    44  Co  -0.020019   1.653948
 Sum of Mulliken charges =  -0.00000   2.00000

 Dipole moment (field-independent basis, Debye):
    X=             -0.0002    Y=             -3.4721    Z=             -0.0001  Tot=              3.4721
 Quadrupole moment (field-independent basis, Debye-Ang):
   XX=           -136.4525   YY=           -133.0652   ZZ=           -173.8232
   XY=              0.0003   XZ=             -0.0004   YZ=             -0.0001

 Normal termination of Gaussian 16 at Wed Jul 17 21:19:00 2024.
