 Gaussian 16, Revision C.01,
 Gaussian 16:  ES64L-G16RevC.01  3-Jul-2019

 ----------------------------------------------------------------------
 # pbe1pbe em=gd3bj genecp g09default scf=(xqc,maxcycle=64) force guess
 =read nosymm
 ----------------------------------------------------------------------

 ----------
 Title Card
 ----------
 Symbolic Z-matrix:
 Charge =  0 Multiplicity = 1

                          Input orientation:
 ---------------------------------------------------------------------
 Center     Atomic      Atomic             Coordinates (Angstroms)
 Number     Number       Type             X           Y           Z
 ---------------------------------------------------------------------
      1          6           0        0.000004    0.789630    0.000092
      2          6           0       -1.278782    1.358136    0.000036
      3          6           0       -1.245710    2.755770   -0.000012
      4          6           0        0.000001    3.405222    0.000005
      5          6           0        1.245714    2.755770    0.000035
      6          6           0        1.278782    1.358138    0.000074
      7          1           0       -2.158530    3.339508   -0.000043
      8          1           0        0.000002    4.493708   -0.000008
      9          1           0        2.158537    3.339506    0.000045
     10          6           0        3.692027    0.582701   -0.000031
     11          6           0        1.919893   -0.910485    0.000138
     12          6           0        4.189110   -0.743331   -0.000098
     13          6           0        4.549915    1.663164   -0.000061
     14          6           0        5.553559   -0.998228   -0.000199
     15          6           0        5.933795    1.404367   -0.000172
     16          1           0        4.181372    2.682789    0.000006
     17          6           0        6.420290    0.104055   -0.000243
     18          1           0        5.931710   -2.017338   -0.000240
     19          1           0        6.623651    2.241810   -0.000197
     20          1           0        7.492920   -0.068393   -0.000328
     21          6           0       -3.692023    0.582698   -0.000043
     22          6           0       -1.919889   -0.910487    0.000105
     23          6           0       -4.189112   -0.743338   -0.000073
     24          6           0       -4.549914    1.663156   -0.000057
     25          6           0       -5.553546   -0.998231   -0.000101
     26          6           0       -5.933793    1.404360   -0.000101
     27          1           0       -4.181373    2.682783   -0.000024
     28          6           0       -6.420286    0.104043   -0.000124
     29          1           0       -5.931703   -2.017347   -0.000101
     30          1           0       -6.623652    2.241800   -0.000109
     31          1           0       -7.492915   -0.068404   -0.000154
     32          7           0       -2.305624    0.470624    0.000016
     33          7           0       -3.120397   -1.604245   -0.000049
     34          7           0        2.305631    0.470625    0.000078
     35          7           0        3.120407   -1.604241   -0.000035
     36          6           0        3.203269   -3.029337    0.000009
     37          1           0        3.720736   -3.402018   -0.892993
     38          1           0        3.720267   -3.402033    0.893280
     39          1           0        2.189066   -3.438683   -0.000277
     40          6           0       -3.203262   -3.029343    0.000045
     41          1           0       -3.720194   -3.402019    0.893363
     42          1           0       -3.720793   -3.402048   -0.892909
     43          1           0       -2.189057   -3.438686   -0.000308
     44         27           0        0.000003   -1.252049    0.000105
 ---------------------------------------------------------------------

 SCF Done:  E(UPBE1PBE) =  -1212.11857447     A.U. after   16 cycles

 Alpha  occ. eigenvalues --  -14.45814 -14.45813 -14.45229 -14.45229 -10.28354
 Alpha  occ. eigenvalues --  -10.28353 -10.27666 -10.27666 -10.27470 -10.27470
 Alpha  occ. eigenvalues --  -10.27295 -10.27294 -10.25257 -10.25257 -10.24173
 Alpha  occ. eigenvalues --  -10.24173 -10.23939 -10.23939 -10.23493 -10.23493
 Alpha  occ. eigenvalues --  -10.23439 -10.23439 -10.21521 -10.21517 -10.21214
 Alpha  occ. eigenvalues --  -10.19126  -3.83146  -2.34896  -2.34843  -2.31055
 Alpha  occ. eigenvalues --   -1.05904  -1.05839  -0.97081  -0.96750  -0.88191
 Alpha  occ. eigenvalues --   -0.87941  -0.84923  -0.80303  -0.78771  -0.77927
 Alpha  occ. eigenvalues --   -0.77835  -0.75569  -0.75030  -0.72932  -0.71836
 Alpha  occ. eigenvalues --   -0.66549  -0.65197  -0.64557  -0.64063  -0.62624
 Alpha  occ. eigenvalues --   -0.61404  -0.58892  -0.57230  -0.56615  -0.54125
 Alpha  occ. eigenvalues --   -0.53219  -0.51968  -0.49703  -0.49645  -0.49044
 Alpha  occ. eigenvalues --   -0.48194  -0.47897  -0.47487  -0.46643  -0.46132
 Alpha  occ. eigenvalues --   -0.45768  -0.45315  -0.45004  -0.44582  -0.44049
 Alpha  occ. eigenvalues --   -0.42383  -0.41923  -0.41098  -0.38527  -0.38411
 Alpha  occ. eigenvalues --   -0.38358  -0.37507  -0.36854  -0.36758  -0.36698
 Alpha  occ. eigenvalues --   -0.35141  -0.34622  -0.34437  -0.33880  -0.31601
 Alpha  occ. eigenvalues --   -0.29027  -0.26668  -0.25941  -0.24748  -0.24435
 Alpha  occ. eigenvalues --   -0.22077  -0.21285  -0.20518  -0.20203  -0.16422
 Alpha  occ. eigenvalues --   -0.15339  -0.14883
 Alpha virt. eigenvalues --   -0.04508  -0.02512  -0.00674  -0.00099   0.00889
 Alpha virt. eigenvalues --    0.01325   0.01981   0.03262   0.05325   0.05923
 Alpha virt. eigenvalues --    0.06226   0.07309   0.08924   0.09291   0.10086

  Beta  occ. eigenvalues --  -14.45814 -14.45813 -14.45229 -14.45229 -10.28354
  Beta  occ. eigenvalues --  -10.28353 -10.27666 -10.27666 -10.27470 -10.27470
  Beta  occ. eigenvalues --  -10.27295 -10.27294 -10.25257 -10.25257 -10.24173
  Beta  occ. eigenvalues --  -10.24173 -10.23939 -10.23939 -10.23493 -10.23493
  Beta  occ. eigenvalues --  -10.23439 -10.23439 -10.21521 -10.21517 -10.21214
  Beta  occ. eigenvalues --  -10.19126  -3.83146  -2.34896  -2.34843  -2.31056
  Beta  occ. eigenvalues --   -1.05904  -1.05839  -0.97081  -0.96750  -0.88191
  Beta  occ. eigenvalues --   -0.87941  -0.84923  -0.80303  -0.78771  -0.77927
  Beta  occ. eigenvalues --   -0.77835  -0.75569  -0.75030  -0.72932  -0.71836
  Beta  occ. eigenvalues --   -0.66549  -0.65197  -0.64557  -0.64063  -0.62624
  Beta  occ. eigenvalues --   -0.61404  -0.58892  -0.57230  -0.56615  -0.54125
  Beta  occ. eigenvalues --   -0.53219  -0.51968  -0.49703  -0.49645  -0.49044
  Beta  occ. eigenvalues --   -0.48194  -0.47897  -0.47487  -0.46643  -0.46132
  Beta  occ. eigenvalues --   -0.45768  -0.45315  -0.45004  -0.44582  -0.44049
  Beta  occ. eigenvalues --   -0.42383  -0.41923  -0.41098  -0.38527  -0.38411
  Beta  occ. eigenvalues --   -0.38358  -0.37507  -0.36854  -0.36758  -0.36698
  Beta  occ. eigenvalues --   -0.35141  -0.34622  -0.34437  -0.33880  -0.31601
  Beta  occ. eigenvalues --   -0.29027  -0.26668  -0.25941  -0.24748  -0.24435
  Beta  occ. eigenvalues --   -0.22077  -0.21285  -0.20518  -0.20203  -0.16422
  Beta  occ. eigenvalues --   -0.15340  -0.14883
  Beta virt. eigenvalues --   -0.04508  -0.02512  -0.00674  -0.00099   0.00889
  Beta virt. eigenvalues --    0.01325   0.01981   0.03262   0.05325   0.05923
  Beta virt. eigenvalues --    0.06226   0.07309   0.08924   0.09291   0.10086

 Mulliken charges and spin densities:
               1          2
     1  C   -0.176118   0.000001
     2  C    0.341433  -0.000000
     3  C   -0.210742   0.000000
     4  C   -0.185796  -0.000000
     5  C   -0.210743   0.000000
     6  C    0.341433  -0.000000
     7  H    0.157325   0.000000
     8  H    0.156945   0.000000
     9  H    0.157325   0.000000
    10  C    0.316282  -0.000000
    11  C    0.409193   0.000000
    12  C    0.291933  -0.000000
    13  C   -0.191940   0.000000
    14  C   -0.211068   0.000000
    15  C   -0.187763   0.000000
    16  H    0.196854  -0.000000
    17  C   -0.184213  -0.000000
    18  H    0.176648  -0.000000
    19  H    0.174145  -0.000000
    20  H    0.171383   0.000000
    21  C    0.316280  -0.000000
    22  C    0.409196   0.000000
    23  C    0.291941  -0.000000
    24  C   -0.191941   0.000000
    25  C   -0.211071   0.000000
    26  C   -0.187764   0.000000
    27  H    0.196854  -0.000000
    28  C   -0.184214  -0.000000
    29  H    0.176648  -0.000000
    30  H    0.174145  -0.000000
    31  H    0.171384   0.000000
    32  N   -0.723763   0.000000
    33  N   -0.583930   0.000000
    34  N   -0.723764   0.000000
    35  N   -0.583928   0.000000
    36  C   -0.401601   0.000000
    37  H    0.202212   0.000000
    38  H    0.202223  -0.000000
    39  H    0.225661   0.000000
    40  C   -0.401600   0.000000
    41  H    0.202224  -0.000000
    42  H    0.202212   0.000000
    43  H    0.225661   0.000000
    44  Co  -0.135583  -0.000003
 Sum of Mulliken charges =  -0.00000  -0.00000

 Dipole moment (field-independent basis, Debye):
    X=             -0.0001    Y=             -3.6744    Z=             -0.0003  Tot=              3.6744
 Quadrupole moment (field-independent basis, Debye-Ang):
   XX=           -126.1144   YY=           -134.6425   ZZ=           -172.2973
   XY=              0.0000   XZ=             -0.0005   YZ=              0.0004

 Normal termination of Gaussian 16 at Wed Jul 17 21:20:54 2024.
