 Gaussian 16, Revision C.01,
 Gaussian 16:  ES64L-G16RevC.01  3-Jul-2019

 ----------------------------------------------------------------------
 # pbe1pbe em=gd3bj genecp g09default scf=(xqc,maxcycle=64) force guess
 =read nosymm
 ----------------------------------------------------------------------

 ----------
 Title Card
 ----------
 Symbolic Z-matrix:
 Charge =  0 Multiplicity = 3

                          Input orientation:
 ---------------------------------------------------------------------
 Center     Atomic      Atomic             Coordinates (Angstroms)
 Number     Number       Type             X           Y           Z
 ---------------------------------------------------------------------
      1          6           0        0.000004    0.789630    0.000092
      2          6           0       -1.278782    1.358136    0.000036
      3          6           0       -1.245710    2.755770   -0.000012
      4          6           0        0.000001    3.405222    0.000005
      5          6           0        1.245714    2.755770    0.000035
      6          6           0        1.278782    1.358138    0.000074
      7          1           0       -2.158530    3.339508   -0.000043
      8          1           0        0.000002    4.493708   -0.000008
      9          1           0        2.158537    3.339506    0.000045
     10          6           0        3.692027    0.582701   -0.000031
     11          6           0        1.919893   -0.910485    0.000138
     12          6           0        4.189110   -0.743331   -0.000098
     13          6           0        4.549915    1.663164   -0.000061
     14          6           0        5.553559   -0.998228   -0.000199
     15          6           0        5.933795    1.404367   -0.000172
     16          1           0        4.181372    2.682789    0.000006
     17          6           0        6.420290    0.104055   -0.000243
     18          1           0        5.931710   -2.017338   -0.000240
     19          1           0        6.623651    2.241810   -0.000197
     20          1           0        7.492920   -0.068393   -0.000328
     21          6           0       -3.692023    0.582698   -0.000043
     22          6           0       -1.919889   -0.910487    0.000105
     23          6           0       -4.189112   -0.743338   -0.000073
     24          6           0       -4.549914    1.663156   -0.000057
     25          6           0       -5.553546   -0.998231   -0.000101
     26          6           0       -5.933793    1.404360   -0.000101
     27          1           0       -4.181373    2.682783   -0.000024
     28          6           0       -6.420286    0.104043   -0.000124
     29          1           0       -5.931703   -2.017347   -0.000101
     30          1           0       -6.623652    2.241800   -0.000109
     31          1           0       -7.492915   -0.068404   -0.000154
     32          7           0       -2.305624    0.470624    0.000016
     33          7           0       -3.120397   -1.604245   -0.000049
     34          7           0        2.305631    0.470625    0.000078
     35          7           0        3.120407   -1.604241   -0.000035
     36          6           0        3.203269   -3.029337    0.000009
     37          1           0        3.720736   -3.402018   -0.892993
     38          1           0        3.720267   -3.402033    0.893280
     39          1           0        2.189066   -3.438683   -0.000277
     40          6           0       -3.203262   -3.029343    0.000045
     41          1           0       -3.720194   -3.402019    0.893363
     42          1           0       -3.720793   -3.402048   -0.892909
     43          1           0       -2.189057   -3.438686   -0.000308
     44         27           0        0.000003   -1.252049    0.000105
 ---------------------------------------------------------------------

 SCF Done:  E(UPBE1PBE) =  -1212.11654135     A.U. after   29 cycles

 Alpha  occ. eigenvalues --  -14.45282 -14.45282 -14.45036 -14.45036 -10.28028
 Alpha  occ. eigenvalues --  -10.28027 -10.27432 -10.27432 -10.27284 -10.27284
 Alpha  occ. eigenvalues --  -10.27149 -10.27149 -10.26574 -10.26574 -10.23650
 Alpha  occ. eigenvalues --  -10.23650 -10.23537 -10.23537 -10.23064 -10.23064
 Alpha  occ. eigenvalues --  -10.22977 -10.22977 -10.22444 -10.22398 -10.22375
 Alpha  occ. eigenvalues --  -10.20887  -3.93513  -2.45495  -2.43759  -2.43244
 Alpha  occ. eigenvalues --   -1.05747  -1.05666  -0.97139  -0.96747  -0.88031
 Alpha  occ. eigenvalues --   -0.87627  -0.85543  -0.80423  -0.78841  -0.77647
 Alpha  occ. eigenvalues --   -0.77641  -0.75513  -0.74887  -0.73201  -0.72353
 Alpha  occ. eigenvalues --   -0.66749  -0.65325  -0.64373  -0.64066  -0.62695
 Alpha  occ. eigenvalues --   -0.61344  -0.58884  -0.57628  -0.56543  -0.53958
 Alpha  occ. eigenvalues --   -0.53086  -0.52223  -0.49746  -0.49665  -0.49124
 Alpha  occ. eigenvalues --   -0.48496  -0.48123  -0.47216  -0.46760  -0.45876
 Alpha  occ. eigenvalues --   -0.45667  -0.45291  -0.44860  -0.44797  -0.44147
 Alpha  occ. eigenvalues --   -0.42710  -0.41928  -0.41312  -0.38909  -0.38521
 Alpha  occ. eigenvalues --   -0.38464  -0.37698  -0.37319  -0.37170  -0.36914
 Alpha  occ. eigenvalues --   -0.36314  -0.34999  -0.34557  -0.34000  -0.31969
 Alpha  occ. eigenvalues --   -0.31412  -0.30431  -0.26902  -0.26894  -0.26640
 Alpha  occ. eigenvalues --   -0.26275  -0.26011  -0.24537  -0.24201  -0.22912
 Alpha  occ. eigenvalues --   -0.20822  -0.20636  -0.10138
 Alpha virt. eigenvalues --   -0.06331  -0.02907  -0.00225  -0.00012   0.00381
 Alpha virt. eigenvalues --    0.02233   0.02773   0.03603   0.03815   0.05588
 Alpha virt. eigenvalues --    0.06163   0.07669   0.07726   0.09682   0.10210

  Beta  occ. eigenvalues --  -14.45152 -14.45152 -14.45010 -14.45010 -10.27803
  Beta  occ. eigenvalues --  -10.27802 -10.27434 -10.27434 -10.27294 -10.27293
  Beta  occ. eigenvalues --  -10.27186 -10.27186 -10.26461 -10.26460 -10.23591
  Beta  occ. eigenvalues --  -10.23591 -10.23515 -10.23515 -10.23072 -10.23072
  Beta  occ. eigenvalues --  -10.22943 -10.22943 -10.22500 -10.22494 -10.22301
  Beta  occ. eigenvalues --  -10.21438  -3.85886  -2.37177  -2.36630  -2.34110
  Beta  occ. eigenvalues --   -1.05543  -1.05457  -0.96968  -0.96541  -0.88022
  Beta  occ. eigenvalues --   -0.87555  -0.85633  -0.80361  -0.78819  -0.77598
  Beta  occ. eigenvalues --   -0.77573  -0.75374  -0.74687  -0.73213  -0.72572
  Beta  occ. eigenvalues --   -0.66788  -0.65213  -0.64126  -0.64054  -0.62683
  Beta  occ. eigenvalues --   -0.61246  -0.58874  -0.57708  -0.56535  -0.53932
  Beta  occ. eigenvalues --   -0.53068  -0.52197  -0.49282  -0.49214  -0.49084
  Beta  occ. eigenvalues --   -0.48516  -0.48265  -0.47193  -0.46726  -0.45845
  Beta  occ. eigenvalues --   -0.45672  -0.45258  -0.44801  -0.44506  -0.43836
  Beta  occ. eigenvalues --   -0.42748  -0.41905  -0.41324  -0.38629  -0.38589
  Beta  occ. eigenvalues --   -0.38554  -0.37307  -0.37263  -0.36511  -0.36487
  Beta  occ. eigenvalues --   -0.35868  -0.35071  -0.34008  -0.33345  -0.31628
  Beta  occ. eigenvalues --   -0.29792  -0.27727  -0.26492  -0.25918  -0.24885
  Beta  occ. eigenvalues --   -0.23801  -0.23451  -0.21939  -0.20660  -0.19820
  Beta  occ. eigenvalues --   -0.19765
  Beta virt. eigenvalues --   -0.04492  -0.04046  -0.00700  -0.00435  -0.00065
  Beta virt. eigenvalues --    0.01322   0.01718   0.02412   0.03532   0.05386
  Beta virt. eigenvalues --    0.05681   0.05976   0.07910   0.08807   0.09292

 Mulliken charges and spin densities:
               1          2
     1  C   -0.243442  -0.322144
     2  C    0.386905   0.079221
     3  C   -0.211558  -0.063747
     4  C   -0.182860   0.088802
     5  C   -0.211559  -0.063747
     6  C    0.386905   0.079220
     7  H    0.168587  -0.003234
     8  H    0.164558  -0.004393
     9  H    0.168588  -0.003235
    10  C    0.316462  -0.000553
    11  C    0.370248   0.193258
    12  C    0.294891  -0.022507
    13  C   -0.196602   0.013510
    14  C   -0.217300   0.043626
    15  C   -0.189968   0.024667
    16  H    0.190715  -0.000934
    17  C   -0.183485  -0.009576
    18  H    0.173126  -0.002271
    19  H    0.170745  -0.001470
    20  H    0.168816   0.000151
    21  C    0.316459  -0.000552
    22  C    0.370250   0.193262
    23  C    0.294899  -0.022507
    24  C   -0.196602   0.013509
    25  C   -0.217303   0.043625
    26  C   -0.189968   0.024667
    27  H    0.190715  -0.000934
    28  C   -0.183485  -0.009577
    29  H    0.173126  -0.002271
    30  H    0.170745  -0.001470
    31  H    0.168817   0.000151
    32  N   -0.730342  -0.005176
    33  N   -0.587804   0.037990
    34  N   -0.730344  -0.005175
    35  N   -0.587802   0.037989
    36  C   -0.400208  -0.004530
    37  H    0.202133   0.002088
    38  H    0.202140   0.002091
    39  H    0.216888  -0.000791
    40  C   -0.400208  -0.004530
    41  H    0.202141   0.002092
    42  H    0.202133   0.002088
    43  H    0.216887  -0.000791
    44  Co  -0.027043   1.674110
 Sum of Mulliken charges =  -0.00000   2.00000

 Dipole moment (field-independent basis, Debye):
    X=             -0.0001    Y=             -3.4602    Z=             -0.0000  Tot=              3.4602
 Quadrupole moment (field-independent basis, Debye-Ang):
   XX=           -136.4323   YY=           -133.0803   ZZ=           -173.8672
   XY=             -0.0000   XZ=             -0.0004   YZ=             -0.0002

 Normal termination of Gaussian 16 at Wed Jul 17 21:20:23 2024.
