 Gaussian 16, Revision C.01,
 Gaussian 16:  ES64L-G16RevC.01  3-Jul-2019

 ----------------------------------------------------------------------
 # pbe1pbe em=gd3bj genecp g09default scf=(xqc,maxcycle=64) force guess
 =read nosymm
 ----------------------------------------------------------------------

 ----------
 Title Card
 ----------
 Symbolic Z-matrix:
 Charge =  0 Multiplicity = 1

                          Input orientation:
 ---------------------------------------------------------------------
 Center     Atomic      Atomic             Coordinates (Angstroms)
 Number     Number       Type             X           Y           Z
 ---------------------------------------------------------------------
      1          6           0        0.000002    0.801910    0.000106
      2          6           0       -1.282075    1.360065    0.000027
      3          6           0       -1.245935    2.757291   -0.000015
      4          6           0        0.000002    3.406256    0.000005
      5          6           0        1.245939    2.757290    0.000032
      6          6           0        1.282075    1.360068    0.000064
      7          1           0       -2.159008    3.340516   -0.000042
      8          1           0        0.000002    4.493842   -0.000008
      9          1           0        2.159015    3.340514    0.000046
     10          6           0        3.695040    0.581909   -0.000032
     11          6           0        1.922695   -0.911495    0.000140
     12          6           0        4.191561   -0.743151   -0.000096
     13          6           0        4.552512    1.664021   -0.000061
     14          6           0        5.556549   -0.998828   -0.000198
     15          6           0        5.936314    1.404549   -0.000172
     16          1           0        4.182355    2.682480    0.000005
     17          6           0        6.422439    0.105151   -0.000243
     18          1           0        5.932809   -2.017454   -0.000239
     19          1           0        6.626317    2.242779   -0.000197
     20          1           0        7.494690   -0.068555   -0.000329
     21          6           0       -3.695034    0.581899   -0.000044
     22          6           0       -1.922689   -0.911498    0.000107
     23          6           0       -4.191555   -0.743156   -0.000072
     24          6           0       -4.552512    1.664019   -0.000057
     25          6           0       -5.556541   -0.998835   -0.000101
     26          6           0       -5.936314    1.404539   -0.000102
     27          1           0       -4.182356    2.682472   -0.000025
     28          6           0       -6.422434    0.105144   -0.000125
     29          1           0       -5.932801   -2.017461   -0.000100
     30          1           0       -6.626319    2.242769   -0.000109
     31          1           0       -7.494686   -0.068567   -0.000154
     32          7           0       -2.307787    0.469861    0.000015
     33          7           0       -3.123979   -1.604932   -0.000047
     34          7           0        2.307791    0.469860    0.000075
     35          7           0        3.123987   -1.604927   -0.000032
     36          6           0        3.205164   -3.030574    0.000009
     37          1           0        3.721643   -3.404286   -0.893183
     38          1           0        3.721170   -3.404301    0.893472
     39          1           0        2.190342   -3.438080   -0.000279
     40          6           0       -3.205157   -3.030579    0.000045
     41          1           0       -3.721096   -3.404287    0.893555
     42          1           0       -3.721699   -3.404317   -0.893099
     43          1           0       -2.190334   -3.438084   -0.000310
     44         27           0        0.000005   -1.261761    0.000105
 ---------------------------------------------------------------------

 SCF Done:  E(UPBE1PBE) =  -1212.11482304     A.U. after   22 cycles

 Alpha  occ. eigenvalues --  -14.45807 -14.45807 -14.45267 -14.45267 -10.28380
 Alpha  occ. eigenvalues --  -10.28379 -10.27679 -10.27679 -10.27473 -10.27473
 Alpha  occ. eigenvalues --  -10.27292 -10.27292 -10.25313 -10.25312 -10.24177
 Alpha  occ. eigenvalues --  -10.24177 -10.23960 -10.23960 -10.23501 -10.23501
 Alpha  occ. eigenvalues --  -10.23448 -10.23448 -10.21555 -10.21551 -10.21222
 Alpha  occ. eigenvalues --  -10.19169  -3.83099  -2.34844  -2.34805  -2.30998
 Alpha  occ. eigenvalues --   -1.05890  -1.05826  -0.97057  -0.96727  -0.88192
 Alpha  occ. eigenvalues --   -0.87940  -0.84978  -0.80314  -0.78784  -0.77923
 Alpha  occ. eigenvalues --   -0.77820  -0.75576  -0.75021  -0.72970  -0.71828
 Alpha  occ. eigenvalues --   -0.66540  -0.65187  -0.64554  -0.64098  -0.62610
 Alpha  occ. eigenvalues --   -0.61407  -0.58919  -0.57227  -0.56640  -0.54119
 Alpha  occ. eigenvalues --   -0.53217  -0.52007  -0.49692  -0.49634  -0.49061
 Alpha  occ. eigenvalues --   -0.48258  -0.47873  -0.47474  -0.46629  -0.46152
 Alpha  occ. eigenvalues --   -0.45782  -0.45349  -0.45011  -0.44576  -0.44045
 Alpha  occ. eigenvalues --   -0.42416  -0.41921  -0.41115  -0.38539  -0.38402
 Alpha  occ. eigenvalues --   -0.38336  -0.37525  -0.36857  -0.36802  -0.36713
 Alpha  occ. eigenvalues --   -0.35054  -0.34645  -0.34448  -0.33882  -0.31620
 Alpha  occ. eigenvalues --   -0.29024  -0.26671  -0.25928  -0.24747  -0.24438
 Alpha  occ. eigenvalues --   -0.21724  -0.21319  -0.20479  -0.20140  -0.16445
 Alpha  occ. eigenvalues --   -0.15301  -0.14832
 Alpha virt. eigenvalues --   -0.04487  -0.02533  -0.00704  -0.00111   0.00865
 Alpha virt. eigenvalues --    0.01316   0.01998   0.03253   0.05304   0.05927
 Alpha virt. eigenvalues --    0.06158   0.07296   0.08883   0.09281   0.10082

  Beta  occ. eigenvalues --  -14.45807 -14.45807 -14.45267 -14.45267 -10.28380
  Beta  occ. eigenvalues --  -10.28379 -10.27679 -10.27679 -10.27473 -10.27473
  Beta  occ. eigenvalues --  -10.27292 -10.27292 -10.25313 -10.25312 -10.24177
  Beta  occ. eigenvalues --  -10.24177 -10.23960 -10.23960 -10.23501 -10.23501
  Beta  occ. eigenvalues --  -10.23448 -10.23448 -10.21555 -10.21551 -10.21222
  Beta  occ. eigenvalues --  -10.19169  -3.83099  -2.34844  -2.34805  -2.30998
  Beta  occ. eigenvalues --   -1.05890  -1.05826  -0.97057  -0.96727  -0.88192
  Beta  occ. eigenvalues --   -0.87940  -0.84978  -0.80314  -0.78784  -0.77923
  Beta  occ. eigenvalues --   -0.77820  -0.75576  -0.75021  -0.72970  -0.71828
  Beta  occ. eigenvalues --   -0.66540  -0.65187  -0.64554  -0.64098  -0.62610
  Beta  occ. eigenvalues --   -0.61407  -0.58919  -0.57227  -0.56640  -0.54119
  Beta  occ. eigenvalues --   -0.53217  -0.52007  -0.49692  -0.49634  -0.49061
  Beta  occ. eigenvalues --   -0.48258  -0.47873  -0.47474  -0.46629  -0.46152
  Beta  occ. eigenvalues --   -0.45782  -0.45349  -0.45011  -0.44576  -0.44045
  Beta  occ. eigenvalues --   -0.42416  -0.41921  -0.41115  -0.38539  -0.38402
  Beta  occ. eigenvalues --   -0.38336  -0.37525  -0.36857  -0.36802  -0.36713
  Beta  occ. eigenvalues --   -0.35054  -0.34645  -0.34448  -0.33882  -0.31620
  Beta  occ. eigenvalues --   -0.29024  -0.26671  -0.25928  -0.24747  -0.24438
  Beta  occ. eigenvalues --   -0.21724  -0.21319  -0.20479  -0.20140  -0.16445
  Beta  occ. eigenvalues --   -0.15301  -0.14832
  Beta virt. eigenvalues --   -0.04487  -0.02533  -0.00704  -0.00111   0.00865
  Beta virt. eigenvalues --    0.01316   0.01998   0.03253   0.05304   0.05927
  Beta virt. eigenvalues --    0.06158   0.07296   0.08883   0.09281   0.10082

 Mulliken charges and spin densities:
               1          2
     1  C   -0.173272  -0.000000
     2  C    0.344826   0.000000
     3  C   -0.212890  -0.000000
     4  C   -0.183550   0.000000
     5  C   -0.212891  -0.000000
     6  C    0.344827   0.000000
     7  H    0.156896  -0.000000
     8  H    0.157158  -0.000000
     9  H    0.156896  -0.000000
    10  C    0.315671   0.000000
    11  C    0.410589  -0.000000
    12  C    0.291907   0.000000
    13  C   -0.191553  -0.000000
    14  C   -0.210820  -0.000000
    15  C   -0.187768  -0.000000
    16  H    0.197017   0.000000
    17  C   -0.184148   0.000000
    18  H    0.176794   0.000000
    19  H    0.174216   0.000000
    20  H    0.171354  -0.000000
    21  C    0.315665   0.000000
    22  C    0.410589  -0.000000
    23  C    0.291911   0.000000
    24  C   -0.191551  -0.000000
    25  C   -0.210822  -0.000000
    26  C   -0.187767  -0.000000
    27  H    0.197016   0.000000
    28  C   -0.184147   0.000000
    29  H    0.176794   0.000000
    30  H    0.174216   0.000000
    31  H    0.171354  -0.000000
    32  N   -0.724973  -0.000000
    33  N   -0.583298  -0.000000
    34  N   -0.724976  -0.000000
    35  N   -0.583298  -0.000000
    36  C   -0.401410   0.000000
    37  H    0.202168   0.000000
    38  H    0.202179  -0.000000
    39  H    0.225920  -0.000000
    40  C   -0.401410   0.000000
    41  H    0.202179   0.000000
    42  H    0.202168  -0.000000
    43  H    0.225920  -0.000000
    44  Co  -0.145683   0.000000
 Sum of Mulliken charges =  -0.00000  -0.00000

 Dipole moment (field-independent basis, Debye):
    X=             -0.0000    Y=             -3.6564    Z=             -0.0003  Tot=              3.6564
 Quadrupole moment (field-independent basis, Debye-Ang):
   XX=           -126.0343   YY=           -134.6405   ZZ=           -172.3116
   XY=              0.0001   XZ=             -0.0005   YZ=              0.0005

 Normal termination of Gaussian 16 at Wed Jul 17 21:22:20 2024.
