 Gaussian 16, Revision C.01,
 Gaussian 16:  ES64L-G16RevC.01  3-Jul-2019

 ----------------------------------------------------------------------
 # pbe1pbe em=gd3bj genecp g09default scf=(xqc,maxcycle=64) force guess
 =read nosymm
 ----------------------------------------------------------------------

 ----------
 Title Card
 ----------
 Symbolic Z-matrix:
 Charge =  0 Multiplicity = 3

                          Input orientation:
 ---------------------------------------------------------------------
 Center     Atomic      Atomic             Coordinates (Angstroms)
 Number     Number       Type             X           Y           Z
 ---------------------------------------------------------------------
      1          6           0        0.000002    0.801910    0.000106
      2          6           0       -1.282075    1.360065    0.000027
      3          6           0       -1.245935    2.757291   -0.000015
      4          6           0        0.000002    3.406256    0.000005
      5          6           0        1.245939    2.757290    0.000032
      6          6           0        1.282075    1.360068    0.000064
      7          1           0       -2.159008    3.340516   -0.000042
      8          1           0        0.000002    4.493842   -0.000008
      9          1           0        2.159015    3.340514    0.000046
     10          6           0        3.695040    0.581909   -0.000032
     11          6           0        1.922695   -0.911495    0.000140
     12          6           0        4.191561   -0.743151   -0.000096
     13          6           0        4.552512    1.664021   -0.000061
     14          6           0        5.556549   -0.998828   -0.000198
     15          6           0        5.936314    1.404549   -0.000172
     16          1           0        4.182355    2.682480    0.000005
     17          6           0        6.422439    0.105151   -0.000243
     18          1           0        5.932809   -2.017454   -0.000239
     19          1           0        6.626317    2.242779   -0.000197
     20          1           0        7.494690   -0.068555   -0.000329
     21          6           0       -3.695034    0.581899   -0.000044
     22          6           0       -1.922689   -0.911498    0.000107
     23          6           0       -4.191555   -0.743156   -0.000072
     24          6           0       -4.552512    1.664019   -0.000057
     25          6           0       -5.556541   -0.998835   -0.000101
     26          6           0       -5.936314    1.404539   -0.000102
     27          1           0       -4.182356    2.682472   -0.000025
     28          6           0       -6.422434    0.105144   -0.000125
     29          1           0       -5.932801   -2.017461   -0.000100
     30          1           0       -6.626319    2.242769   -0.000109
     31          1           0       -7.494686   -0.068567   -0.000154
     32          7           0       -2.307787    0.469861    0.000015
     33          7           0       -3.123979   -1.604932   -0.000047
     34          7           0        2.307791    0.469860    0.000075
     35          7           0        3.123987   -1.604927   -0.000032
     36          6           0        3.205164   -3.030574    0.000009
     37          1           0        3.721643   -3.404286   -0.893183
     38          1           0        3.721170   -3.404301    0.893472
     39          1           0        2.190342   -3.438080   -0.000279
     40          6           0       -3.205157   -3.030579    0.000045
     41          1           0       -3.721096   -3.404287    0.893555
     42          1           0       -3.721699   -3.404317   -0.893099
     43          1           0       -2.190334   -3.438084   -0.000310
     44         27           0        0.000005   -1.261761    0.000105
 ---------------------------------------------------------------------

 SCF Done:  E(UPBE1PBE) =  -1212.11376640     A.U. after   25 cycles

 Alpha  occ. eigenvalues --  -14.45269 -14.45269 -14.45079 -14.45079 -10.28037
 Alpha  occ. eigenvalues --  -10.28037 -10.27445 -10.27445 -10.27272 -10.27272
 Alpha  occ. eigenvalues --  -10.27148 -10.27148 -10.26650 -10.26650 -10.23648
 Alpha  occ. eigenvalues --  -10.23648 -10.23555 -10.23555 -10.23068 -10.23068
 Alpha  occ. eigenvalues --  -10.22983 -10.22983 -10.22479 -10.22455 -10.22410
 Alpha  occ. eigenvalues --  -10.20999  -3.93454  -2.45364  -2.43728  -2.43257
 Alpha  occ. eigenvalues --   -1.05729  -1.05650  -0.97116  -0.96724  -0.88037
 Alpha  occ. eigenvalues --   -0.87623  -0.85605  -0.80441  -0.78846  -0.77635
 Alpha  occ. eigenvalues --   -0.77631  -0.75524  -0.74873  -0.73236  -0.72354
 Alpha  occ. eigenvalues --   -0.66746  -0.65311  -0.64364  -0.64096  -0.62680
 Alpha  occ. eigenvalues --   -0.61344  -0.58922  -0.57628  -0.56567  -0.53953
 Alpha  occ. eigenvalues --   -0.53081  -0.52267  -0.49729  -0.49647  -0.49135
 Alpha  occ. eigenvalues --   -0.48565  -0.48090  -0.47199  -0.46735  -0.45889
 Alpha  occ. eigenvalues --   -0.45688  -0.45320  -0.44854  -0.44807  -0.44140
 Alpha  occ. eigenvalues --   -0.42761  -0.41919  -0.41318  -0.38927  -0.38521
 Alpha  occ. eigenvalues --   -0.38460  -0.37625  -0.37320  -0.37160  -0.36917
 Alpha  occ. eigenvalues --   -0.36357  -0.35037  -0.34564  -0.33994  -0.31980
 Alpha  occ. eigenvalues --   -0.31310  -0.30431  -0.26879  -0.26638  -0.26633
 Alpha  occ. eigenvalues --   -0.26114  -0.26011  -0.24535  -0.24211  -0.22920
 Alpha  occ. eigenvalues --   -0.20869  -0.20690  -0.10103
 Alpha virt. eigenvalues --   -0.06368  -0.02935  -0.00253  -0.00042   0.00356
 Alpha virt. eigenvalues --    0.02252   0.02780   0.03503   0.03788   0.05592
 Alpha virt. eigenvalues --    0.06142   0.07632   0.07675   0.09669   0.10206

  Beta  occ. eigenvalues --  -14.45141 -14.45140 -14.45053 -14.45053 -10.27816
  Beta  occ. eigenvalues --  -10.27815 -10.27447 -10.27447 -10.27282 -10.27282
  Beta  occ. eigenvalues --  -10.27185 -10.27185 -10.26540 -10.26539 -10.23588
  Beta  occ. eigenvalues --  -10.23588 -10.23532 -10.23532 -10.23074 -10.23074
  Beta  occ. eigenvalues --  -10.22950 -10.22950 -10.22555 -10.22550 -10.22320
  Beta  occ. eigenvalues --  -10.21588  -3.85676  -2.36916  -2.36394  -2.33975
  Beta  occ. eigenvalues --   -1.05528  -1.05444  -0.96952  -0.96522  -0.88037
  Beta  occ. eigenvalues --   -0.87552  -0.85712  -0.80383  -0.78828  -0.77584
  Beta  occ. eigenvalues --   -0.77567  -0.75391  -0.74675  -0.73248  -0.72601
  Beta  occ. eigenvalues --   -0.66785  -0.65223  -0.64119  -0.64084  -0.62677
  Beta  occ. eigenvalues --   -0.61247  -0.58916  -0.57726  -0.56564  -0.53932
  Beta  occ. eigenvalues --   -0.53066  -0.52247  -0.49268  -0.49200  -0.49100
  Beta  occ. eigenvalues --   -0.48592  -0.48253  -0.47178  -0.46708  -0.45858
  Beta  occ. eigenvalues --   -0.45695  -0.45289  -0.44815  -0.44507  -0.43832
  Beta  occ. eigenvalues --   -0.42805  -0.41896  -0.41332  -0.38662  -0.38601
  Beta  occ. eigenvalues --   -0.38562  -0.37306  -0.37248  -0.36517  -0.36513
  Beta  occ. eigenvalues --   -0.35796  -0.35118  -0.34022  -0.33344  -0.31649
  Beta  occ. eigenvalues --   -0.29794  -0.27451  -0.26503  -0.25918  -0.24849
  Beta  occ. eigenvalues --   -0.23800  -0.23253  -0.21951  -0.20701  -0.19800
  Beta  occ. eigenvalues --   -0.19669
  Beta virt. eigenvalues --   -0.04451  -0.03984  -0.00720  -0.00335  -0.00092
  Beta virt. eigenvalues --    0.01341   0.01729   0.02434   0.03528   0.05365
  Beta virt. eigenvalues --    0.05629   0.05983   0.07906   0.08759   0.09287

 Mulliken charges and spin densities:
               1          2
     1  C   -0.238391  -0.344576
     2  C    0.390436   0.078284
     3  C   -0.213786  -0.062927
     4  C   -0.180778   0.086132
     5  C   -0.213787  -0.062926
     6  C    0.390438   0.078282
     7  H    0.168550  -0.003853
     8  H    0.164834  -0.004244
     9  H    0.168550  -0.003853
    10  C    0.315847  -0.000844
    11  C    0.370963   0.191673
    12  C    0.294869  -0.022477
    13  C   -0.196312   0.013931
    14  C   -0.217116   0.043903
    15  C   -0.189971   0.024530
    16  H    0.190765  -0.000960
    17  C   -0.183425  -0.009478
    18  H    0.173257  -0.002287
    19  H    0.170779  -0.001466
    20  H    0.168761   0.000143
    21  C    0.315841  -0.000844
    22  C    0.370962   0.191682
    23  C    0.294872  -0.022478
    24  C   -0.196310   0.013931
    25  C   -0.217118   0.043904
    26  C   -0.189971   0.024530
    27  H    0.190764  -0.000960
    28  C   -0.183424  -0.009478
    29  H    0.173257  -0.002287
    30  H    0.170779  -0.001466
    31  H    0.168760   0.000143
    32  N   -0.731600  -0.005192
    33  N   -0.587056   0.037518
    34  N   -0.731603  -0.005191
    35  N   -0.587055   0.037517
    36  C   -0.400089  -0.004485
    37  H    0.202041   0.002048
    38  H    0.202048   0.002052
    39  H    0.217329  -0.000832
    40  C   -0.400089  -0.004485
    41  H    0.202048   0.002052
    42  H    0.202041   0.002048
    43  H    0.217329  -0.000832
    44  Co  -0.038237   1.704116
 Sum of Mulliken charges =  -0.00000   2.00000

 Dipole moment (field-independent basis, Debye):
    X=              0.0000    Y=             -3.4206    Z=             -0.0001  Tot=              3.4206
 Quadrupole moment (field-independent basis, Debye-Ang):
   XX=           -136.4687   YY=           -133.1075   ZZ=           -173.8803
   XY=              0.0000   XZ=             -0.0004   YZ=              0.0001

 Normal termination of Gaussian 16 at Wed Jul 17 21:21:39 2024.
