 Gaussian 16, Revision C.01,
 Gaussian 16:  ES64L-G16RevC.01  3-Jul-2019

 ----------------------------------------------------------------------
 # pbe1pbe em=gd3bj genecp g09default scf=(xqc,maxcycle=64) force guess
 =read nosymm
 ----------------------------------------------------------------------

 ----------
 Title Card
 ----------
 Symbolic Z-matrix:
 Charge =  0 Multiplicity = 1

                          Input orientation:
 ---------------------------------------------------------------------
 Center     Atomic      Atomic             Coordinates (Angstroms)
 Number     Number       Type             X           Y           Z
 ---------------------------------------------------------------------
      1          6           0        0.000002    0.807628    0.000098
      2          6           0       -1.284033    1.360660    0.000027
      3          6           0       -1.246500    2.758303   -0.000015
      4          6           0        0.000001    3.406554    0.000003
      5          6           0        1.246505    2.758304    0.000031
      6          6           0        1.284036    1.360660    0.000064
      7          1           0       -2.158860    3.342511   -0.000042
      8          1           0        0.000002    4.494550   -0.000007
      9          1           0        2.158866    3.342508    0.000045
     10          6           0        3.697863    0.582009   -0.000034
     11          6           0        1.925231   -0.912498    0.000142
     12          6           0        4.194745   -0.742842   -0.000097
     13          6           0        4.555987    1.663577   -0.000063
     14          6           0        5.560437   -0.998611   -0.000198
     15          6           0        5.939772    1.404782   -0.000172
     16          1           0        4.185842    2.682324    0.000004
     17          6           0        6.426563    0.105717   -0.000244
     18          1           0        5.936894   -2.016464   -0.000238
     19          1           0        6.629817    2.242993   -0.000197
     20          1           0        7.498549   -0.067874   -0.000329
     21          6           0       -3.697860    0.582007   -0.000045
     22          6           0       -1.925223   -0.912501    0.000109
     23          6           0       -4.194740   -0.742850   -0.000073
     24          6           0       -4.555987    1.663567   -0.000058
     25          6           0       -5.560428   -0.998617   -0.000101
     26          6           0       -5.939770    1.404775   -0.000102
     27          1           0       -4.185842    2.682318   -0.000025
     28          6           0       -6.426560    0.105707   -0.000125
     29          1           0       -5.936887   -2.016471   -0.000099
     30          1           0       -6.629819    2.242983   -0.000109
     31          1           0       -7.498544   -0.067886   -0.000154
     32          7           0       -2.310390    0.469657    0.000016
     33          7           0       -3.128177   -1.605763   -0.000046
     34          7           0        2.310394    0.469660    0.000075
     35          7           0        3.128182   -1.605758   -0.000029
     36          6           0        3.208496   -3.031207    0.000009
     37          1           0        3.724401   -3.406427   -0.893153
     38          1           0        3.723922   -3.406445    0.893445
     39          1           0        2.193036   -3.437238   -0.000284
     40          6           0       -3.208488   -3.031213    0.000045
     41          1           0       -3.723848   -3.406430    0.893529
     42          1           0       -3.724459   -3.406460   -0.893068
     43          1           0       -2.193028   -3.437242   -0.000315
     44         27           0        0.000004   -1.268879    0.000117
 ---------------------------------------------------------------------

 SCF Done:  E(UPBE1PBE) =  -1212.11241540     A.U. after   14 cycles

 Alpha  occ. eigenvalues --  -14.45810 -14.45810 -14.45303 -14.45303 -10.28427
 Alpha  occ. eigenvalues --  -10.28427 -10.27695 -10.27695 -10.27486 -10.27486
 Alpha  occ. eigenvalues --  -10.27288 -10.27288 -10.25367 -10.25366 -10.24180
 Alpha  occ. eigenvalues --  -10.24180 -10.23970 -10.23970 -10.23506 -10.23506
 Alpha  occ. eigenvalues --  -10.23451 -10.23451 -10.21585 -10.21582 -10.21241
 Alpha  occ. eigenvalues --  -10.19215  -3.83086  -2.34832  -2.34797  -2.30976
 Alpha  occ. eigenvalues --   -1.05860  -1.05797  -0.97036  -0.96708  -0.88187
 Alpha  occ. eigenvalues --   -0.87934  -0.84994  -0.80311  -0.78784  -0.77918
 Alpha  occ. eigenvalues --   -0.77811  -0.75568  -0.75000  -0.72982  -0.71825
 Alpha  occ. eigenvalues --   -0.66533  -0.65180  -0.64548  -0.64107  -0.62593
 Alpha  occ. eigenvalues --   -0.61404  -0.58929  -0.57219  -0.56643  -0.54116
 Alpha  occ. eigenvalues --   -0.53221  -0.52027  -0.49673  -0.49615  -0.49057
 Alpha  occ. eigenvalues --   -0.48289  -0.47868  -0.47482  -0.46621  -0.46147
 Alpha  occ. eigenvalues --   -0.45784  -0.45358  -0.45014  -0.44562  -0.44033
 Alpha  occ. eigenvalues --   -0.42426  -0.41906  -0.41114  -0.38536  -0.38407
 Alpha  occ. eigenvalues --   -0.38338  -0.37523  -0.36851  -0.36801  -0.36713
 Alpha  occ. eigenvalues --   -0.35009  -0.34666  -0.34443  -0.33873  -0.31631
 Alpha  occ. eigenvalues --   -0.29045  -0.26676  -0.25923  -0.24735  -0.24429
 Alpha  occ. eigenvalues --   -0.21542  -0.21337  -0.20465  -0.20118  -0.16469
 Alpha  occ. eigenvalues --   -0.15288  -0.14818
 Alpha virt. eigenvalues --   -0.04489  -0.02554  -0.00727  -0.00125   0.00859
 Alpha virt. eigenvalues --    0.01309   0.01993   0.03228   0.05288   0.05933
 Alpha virt. eigenvalues --    0.06108   0.07279   0.08830   0.09269   0.10079

  Beta  occ. eigenvalues --  -14.45810 -14.45810 -14.45303 -14.45303 -10.28427
  Beta  occ. eigenvalues --  -10.28427 -10.27695 -10.27695 -10.27486 -10.27486
  Beta  occ. eigenvalues --  -10.27288 -10.27288 -10.25367 -10.25366 -10.24180
  Beta  occ. eigenvalues --  -10.24180 -10.23970 -10.23970 -10.23506 -10.23506
  Beta  occ. eigenvalues --  -10.23451 -10.23451 -10.21585 -10.21582 -10.21241
  Beta  occ. eigenvalues --  -10.19215  -3.83086  -2.34832  -2.34797  -2.30976
  Beta  occ. eigenvalues --   -1.05860  -1.05797  -0.97036  -0.96708  -0.88187
  Beta  occ. eigenvalues --   -0.87934  -0.84994  -0.80311  -0.78784  -0.77918
  Beta  occ. eigenvalues --   -0.77811  -0.75568  -0.75000  -0.72982  -0.71825
  Beta  occ. eigenvalues --   -0.66533  -0.65180  -0.64548  -0.64107  -0.62593
  Beta  occ. eigenvalues --   -0.61404  -0.58929  -0.57219  -0.56643  -0.54116
  Beta  occ. eigenvalues --   -0.53221  -0.52027  -0.49673  -0.49615  -0.49057
  Beta  occ. eigenvalues --   -0.48289  -0.47868  -0.47482  -0.46621  -0.46147
  Beta  occ. eigenvalues --   -0.45784  -0.45358  -0.45014  -0.44562  -0.44033
  Beta  occ. eigenvalues --   -0.42426  -0.41906  -0.41114  -0.38536  -0.38407
  Beta  occ. eigenvalues --   -0.38338  -0.37523  -0.36851  -0.36801  -0.36713
  Beta  occ. eigenvalues --   -0.35009  -0.34666  -0.34443  -0.33873  -0.31631
  Beta  occ. eigenvalues --   -0.29045  -0.26676  -0.25923  -0.24735  -0.24429
  Beta  occ. eigenvalues --   -0.21542  -0.21337  -0.20465  -0.20118  -0.16469
  Beta  occ. eigenvalues --   -0.15288  -0.14818
  Beta virt. eigenvalues --   -0.04489  -0.02554  -0.00727  -0.00125   0.00859
  Beta virt. eigenvalues --    0.01309   0.01993   0.03228   0.05288   0.05933
  Beta virt. eigenvalues --    0.06108   0.07279   0.08830   0.09269   0.10079

 Mulliken charges and spin densities:
               1          2
     1  C   -0.170593  -0.000000
     2  C    0.345613   0.000000
     3  C   -0.213880  -0.000000
     4  C   -0.182435   0.000000
     5  C   -0.213881  -0.000000
     6  C    0.345612   0.000000
     7  H    0.156818  -0.000000
     8  H    0.157193  -0.000000
     9  H    0.156818  -0.000000
    10  C    0.316499   0.000000
    11  C    0.411311  -0.000000
    12  C    0.291700   0.000000
    13  C   -0.191786  -0.000000
    14  C   -0.210706  -0.000000
    15  C   -0.187601  -0.000000
    16  H    0.196941   0.000000
    17  C   -0.184063   0.000000
    18  H    0.176833   0.000000
    19  H    0.174248   0.000000
    20  H    0.171423  -0.000000
    21  C    0.316502   0.000000
    22  C    0.411311  -0.000000
    23  C    0.291702   0.000000
    24  C   -0.191787  -0.000000
    25  C   -0.210708  -0.000000
    26  C   -0.187601  -0.000000
    27  H    0.196941   0.000000
    28  C   -0.184063   0.000000
    29  H    0.176832   0.000000
    30  H    0.174248   0.000000
    31  H    0.171423  -0.000000
    32  N   -0.725949  -0.000000
    33  N   -0.582831  -0.000000
    34  N   -0.725947  -0.000000
    35  N   -0.582830  -0.000000
    36  C   -0.401351  -0.000000
    37  H    0.202074   0.000000
    38  H    0.202084  -0.000000
    39  H    0.225976  -0.000000
    40  C   -0.401351  -0.000000
    41  H    0.202084   0.000000
    42  H    0.202073  -0.000000
    43  H    0.225976  -0.000000
    44  Co  -0.150871   0.000000
 Sum of Mulliken charges =  -0.00000   0.00000

 Dipole moment (field-independent basis, Debye):
    X=              0.0000    Y=             -3.6406    Z=             -0.0003  Tot=              3.6406
 Quadrupole moment (field-independent basis, Debye-Ang):
   XX=           -125.9378   YY=           -134.6532   ZZ=           -172.3339
   XY=             -0.0000   XZ=             -0.0005   YZ=              0.0005

 Normal termination of Gaussian 16 at Wed Jul 17 21:23:43 2024.
