 Gaussian 16, Revision C.01,
 Gaussian 16:  ES64L-G16RevC.01  3-Jul-2019

 ----------------------------------------------------------------------
 # pbe1pbe em=gd3bj genecp g09default scf=(xqc,maxcycle=64) force guess
 =read nosymm
 ----------------------------------------------------------------------

 ----------
 Title Card
 ----------
 Symbolic Z-matrix:
 Charge =  0 Multiplicity = 3

                          Input orientation:
 ---------------------------------------------------------------------
 Center     Atomic      Atomic             Coordinates (Angstroms)
 Number     Number       Type             X           Y           Z
 ---------------------------------------------------------------------
      1          6           0        0.000002    0.807628    0.000098
      2          6           0       -1.284033    1.360660    0.000027
      3          6           0       -1.246500    2.758303   -0.000015
      4          6           0        0.000001    3.406554    0.000003
      5          6           0        1.246505    2.758304    0.000031
      6          6           0        1.284036    1.360660    0.000064
      7          1           0       -2.158860    3.342511   -0.000042
      8          1           0        0.000002    4.494550   -0.000007
      9          1           0        2.158866    3.342508    0.000045
     10          6           0        3.697863    0.582009   -0.000034
     11          6           0        1.925231   -0.912498    0.000142
     12          6           0        4.194745   -0.742842   -0.000097
     13          6           0        4.555987    1.663577   -0.000063
     14          6           0        5.560437   -0.998611   -0.000198
     15          6           0        5.939772    1.404782   -0.000172
     16          1           0        4.185842    2.682324    0.000004
     17          6           0        6.426563    0.105717   -0.000244
     18          1           0        5.936894   -2.016464   -0.000238
     19          1           0        6.629817    2.242993   -0.000197
     20          1           0        7.498549   -0.067874   -0.000329
     21          6           0       -3.697860    0.582007   -0.000045
     22          6           0       -1.925223   -0.912501    0.000109
     23          6           0       -4.194740   -0.742850   -0.000073
     24          6           0       -4.555987    1.663567   -0.000058
     25          6           0       -5.560428   -0.998617   -0.000101
     26          6           0       -5.939770    1.404775   -0.000102
     27          1           0       -4.185842    2.682318   -0.000025
     28          6           0       -6.426560    0.105707   -0.000125
     29          1           0       -5.936887   -2.016471   -0.000099
     30          1           0       -6.629819    2.242983   -0.000109
     31          1           0       -7.498544   -0.067886   -0.000154
     32          7           0       -2.310390    0.469657    0.000016
     33          7           0       -3.128177   -1.605763   -0.000046
     34          7           0        2.310394    0.469660    0.000075
     35          7           0        3.128182   -1.605758   -0.000029
     36          6           0        3.208496   -3.031207    0.000009
     37          1           0        3.724401   -3.406427   -0.893153
     38          1           0        3.723922   -3.406445    0.893445
     39          1           0        2.193036   -3.437238   -0.000284
     40          6           0       -3.208488   -3.031213    0.000045
     41          1           0       -3.723848   -3.406430    0.893529
     42          1           0       -3.724459   -3.406460   -0.893068
     43          1           0       -2.193028   -3.437242   -0.000315
     44         27           0        0.000004   -1.268879    0.000117
 ---------------------------------------------------------------------

 SCF Done:  E(UPBE1PBE) =  -1212.11199499     A.U. after   32 cycles

 Alpha  occ. eigenvalues --  -14.45266 -14.45266 -14.45117 -14.45117 -10.28070
 Alpha  occ. eigenvalues --  -10.28070 -10.27460 -10.27459 -10.27261 -10.27261
 Alpha  occ. eigenvalues --  -10.27159 -10.27159 -10.26719 -10.26719 -10.23647
 Alpha  occ. eigenvalues --  -10.23647 -10.23563 -10.23563 -10.23070 -10.23070
 Alpha  occ. eigenvalues --  -10.22983 -10.22983 -10.22517 -10.22499 -10.22441
 Alpha  occ. eigenvalues --  -10.21084  -3.93431  -2.45298  -2.43724  -2.43278
 Alpha  occ. eigenvalues --   -1.05695  -1.05616  -0.97094  -0.96704  -0.88034
 Alpha  occ. eigenvalues --   -0.87615  -0.85626  -0.80441  -0.78841  -0.77629
 Alpha  occ. eigenvalues --   -0.77621  -0.75519  -0.74848  -0.73244  -0.72357
 Alpha  occ. eigenvalues --   -0.66742  -0.65301  -0.64355  -0.64104  -0.62658
 Alpha  occ. eigenvalues --   -0.61337  -0.58937  -0.57622  -0.56571  -0.53949
 Alpha  occ. eigenvalues --   -0.53082  -0.52291  -0.49705  -0.49622  -0.49126
 Alpha  occ. eigenvalues --   -0.48598  -0.48078  -0.47204  -0.46734  -0.45881
 Alpha  occ. eigenvalues --   -0.45685  -0.45326  -0.44840  -0.44810  -0.44126
 Alpha  occ. eigenvalues --   -0.42782  -0.41898  -0.41306  -0.38927  -0.38529
 Alpha  occ. eigenvalues --   -0.38458  -0.37586  -0.37319  -0.37158  -0.36912
 Alpha  occ. eigenvalues --   -0.36357  -0.35062  -0.34557  -0.33980  -0.31987
 Alpha  occ. eigenvalues --   -0.31261  -0.30450  -0.26876  -0.26627  -0.26511
 Alpha  occ. eigenvalues --   -0.26029  -0.26015  -0.24524  -0.24232  -0.22922
 Alpha  occ. eigenvalues --   -0.20899  -0.20726  -0.10099
 Alpha virt. eigenvalues --   -0.06399  -0.02971  -0.00273  -0.00062   0.00350
 Alpha virt. eigenvalues --    0.02249   0.02770   0.03431   0.03771   0.05598
 Alpha virt. eigenvalues --    0.06120   0.07604   0.07622   0.09655   0.10202

  Beta  occ. eigenvalues --  -14.45138 -14.45138 -14.45091 -14.45091 -10.27849
  Beta  occ. eigenvalues --  -10.27849 -10.27462 -10.27462 -10.27271 -10.27270
  Beta  occ. eigenvalues --  -10.27196 -10.27196 -10.26610 -10.26609 -10.23587
  Beta  occ. eigenvalues --  -10.23587 -10.23540 -10.23540 -10.23077 -10.23077
  Beta  occ. eigenvalues --  -10.22950 -10.22950 -10.22599 -10.22595 -10.22347
  Beta  occ. eigenvalues --  -10.21697  -3.85562  -2.36775  -2.36260  -2.33906
  Beta  occ. eigenvalues --   -1.05496  -1.05412  -0.96934  -0.96504  -0.88041
  Beta  occ. eigenvalues --   -0.87545  -0.85743  -0.80387  -0.78825  -0.77575
  Beta  occ. eigenvalues --   -0.77561  -0.75391  -0.74650  -0.73256  -0.72620
  Beta  occ. eigenvalues --   -0.66784  -0.65225  -0.64110  -0.64090  -0.62660
  Beta  occ. eigenvalues --   -0.61242  -0.58934  -0.57731  -0.56571  -0.53931
  Beta  occ. eigenvalues --   -0.53068  -0.52275  -0.49246  -0.49177  -0.49095
  Beta  occ. eigenvalues --   -0.48628  -0.48253  -0.47183  -0.46712  -0.45850
  Beta  occ. eigenvalues --   -0.45692  -0.45296  -0.44819  -0.44496  -0.43818
  Beta  occ. eigenvalues --   -0.42831  -0.41876  -0.41320  -0.38670  -0.38605
  Beta  occ. eigenvalues --   -0.38574  -0.37307  -0.37251  -0.36512  -0.36508
  Beta  occ. eigenvalues --   -0.35750  -0.35146  -0.34019  -0.33333  -0.31661
  Beta  occ. eigenvalues --   -0.29814  -0.27310  -0.26513  -0.25922  -0.24819
  Beta  occ. eigenvalues --   -0.23787  -0.23143  -0.21958  -0.20733  -0.19793
  Beta  occ. eigenvalues --   -0.19627
  Beta virt. eigenvalues --   -0.04442  -0.03952  -0.00743  -0.00282  -0.00110
  Beta virt. eigenvalues --    0.01353   0.01738   0.02433   0.03509   0.05349
  Beta virt. eigenvalues --    0.05592   0.05990   0.07896   0.08705   0.09279

 Mulliken charges and spin densities:
               1          2
     1  C   -0.234376  -0.358422
     2  C    0.391277   0.078058
     3  C   -0.214799  -0.062737
     4  C   -0.179776   0.084807
     5  C   -0.214799  -0.062737
     6  C    0.391276   0.078057
     7  H    0.168693  -0.004197
     8  H    0.164922  -0.004172
     9  H    0.168693  -0.004196
    10  C    0.316650  -0.000927
    11  C    0.371237   0.191337
    12  C    0.294666  -0.022484
    13  C   -0.196580   0.014017
    14  C   -0.217025   0.043957
    15  C   -0.189812   0.024475
    16  H    0.190619  -0.000968
    17  C   -0.183343  -0.009455
    18  H    0.173294  -0.002289
    19  H    0.170790  -0.001463
    20  H    0.168817   0.000140
    21  C    0.316653  -0.000927
    22  C    0.371235   0.191345
    23  C    0.294669  -0.022484
    24  C   -0.196580   0.014017
    25  C   -0.217027   0.043957
    26  C   -0.189813   0.024476
    27  H    0.190618  -0.000968
    28  C   -0.183343  -0.009456
    29  H    0.173293  -0.002289
    30  H    0.170790  -0.001463
    31  H    0.168817   0.000140
    32  N   -0.732577  -0.005257
    33  N   -0.586506   0.037226
    34  N   -0.732575  -0.005257
    35  N   -0.586505   0.037226
    36  C   -0.400043  -0.004467
    37  H    0.201891   0.002035
    38  H    0.201898   0.002039
    39  H    0.217491  -0.000859
    40  C   -0.400043  -0.004467
    41  H    0.201898   0.002039
    42  H    0.201891   0.002035
    43  H    0.217491  -0.000859
    44  Co  -0.044049   1.721419
 Sum of Mulliken charges =  -0.00000   2.00000

 Dipole moment (field-independent basis, Debye):
    X=              0.0001    Y=             -3.3895    Z=             -0.0001  Tot=              3.3895
 Quadrupole moment (field-independent basis, Debye-Ang):
   XX=           -136.4481   YY=           -133.1402   ZZ=           -173.8968
   XY=             -0.0001   XZ=             -0.0004   YZ=             -0.0001

 Normal termination of Gaussian 16 at Wed Jul 17 21:23:15 2024.
