 Gaussian 16, Revision C.01,
 Gaussian 16:  ES64L-G16RevC.01  3-Jul-2019

 ----------------------------------------------------------------------
 # pbe1pbe em=gd3bj genecp g09default scf=(xqc,maxcycle=64) force guess
 =read nosymm
 ----------------------------------------------------------------------

 ----------
 Title Card
 ----------
 Symbolic Z-matrix:
 Charge =  0 Multiplicity = 1

                          Input orientation:
 ---------------------------------------------------------------------
 Center     Atomic      Atomic             Coordinates (Angstroms)
 Number     Number       Type             X           Y           Z
 ---------------------------------------------------------------------
      1          6           0        0.000001    0.811593    0.000097
      2          6           0       -1.285748    1.360976    0.000026
      3          6           0       -1.246500    2.759161   -0.000015
      4          6           0        0.000003    3.407336    0.000001
      5          6           0        1.246503    2.759160    0.000030
      6          6           0        1.285750    1.360980    0.000061
      7          1           0       -2.158681    3.344441   -0.000042
      8          1           0        0.000002    4.495135   -0.000007
      9          1           0        2.158689    3.344439    0.000044
     10          6           0        3.700534    0.581821   -0.000036
     11          6           0        1.928252   -0.913695    0.000142
     12          6           0        4.198369   -0.742994   -0.000097
     13          6           0        4.559234    1.663691   -0.000065
     14          6           0        5.564099   -0.997486   -0.000198
     15          6           0        5.943305    1.404828   -0.000173
     16          1           0        4.189599    2.681978    0.000003
     17          6           0        6.430148    0.105914   -0.000244
     18          1           0        5.941323   -2.015758   -0.000236
     19          1           0        6.633211    2.243186   -0.000197
     20          1           0        7.502746   -0.067139   -0.000329
     21          6           0       -3.700527    0.581806   -0.000047
     22          6           0       -1.928248   -0.913698    0.000110
     23          6           0       -4.198360   -0.742996   -0.000074
     24          6           0       -4.559233    1.663693   -0.000059
     25          6           0       -5.564094   -0.997497   -0.000102
     26          6           0       -5.943307    1.404813   -0.000103
     27          1           0       -4.189601    2.681968   -0.000026
     28          6           0       -6.430142    0.105911   -0.000126
     29          1           0       -5.941315   -2.015764   -0.000098
     30          1           0       -6.633213    2.243177   -0.000110
     31          1           0       -7.502742   -0.067152   -0.000154
     32          7           0       -2.311918    0.469359    0.000019
     33          7           0       -3.131415   -1.605588   -0.000044
     34          7           0        2.311922    0.469356    0.000077
     35          7           0        3.131421   -1.605583   -0.000025
     36          6           0        3.211949   -3.032179    0.000010
     37          1           0        3.727294   -3.408273   -0.893017
     38          1           0        3.726806   -3.408294    0.893314
     39          1           0        2.195849   -3.436358   -0.000289
     40          6           0       -3.211942   -3.032185    0.000046
     41          1           0       -3.726731   -3.408277    0.893398
     42          1           0       -3.727352   -3.408307   -0.892931
     43          1           0       -2.195841   -3.436362   -0.000321
     44         27           0        0.000004   -1.275060    0.000126
 ---------------------------------------------------------------------

 SCF Done:  E(UPBE1PBE) =  -1212.11056764     A.U. after   15 cycles

 Alpha  occ. eigenvalues --  -14.45822 -14.45822 -14.45328 -14.45327 -10.28451
 Alpha  occ. eigenvalues --  -10.28451 -10.27716 -10.27716 -10.27496 -10.27496
 Alpha  occ. eigenvalues --  -10.27291 -10.27290 -10.25401 -10.25400 -10.24186
 Alpha  occ. eigenvalues --  -10.24186 -10.23979 -10.23979 -10.23512 -10.23511
 Alpha  occ. eigenvalues --  -10.23458 -10.23457 -10.21605 -10.21602 -10.21241
 Alpha  occ. eigenvalues --  -10.19240  -3.83055  -2.34807  -2.34767  -2.30938
 Alpha  occ. eigenvalues --   -1.05839  -1.05777  -0.97010  -0.96682  -0.88184
 Alpha  occ. eigenvalues --   -0.87937  -0.84993  -0.80299  -0.78778  -0.77915
 Alpha  occ. eigenvalues --   -0.77807  -0.75570  -0.74999  -0.72985  -0.71816
 Alpha  occ. eigenvalues --   -0.66521  -0.65179  -0.64555  -0.64106  -0.62583
 Alpha  occ. eigenvalues --   -0.61396  -0.58930  -0.57207  -0.56643  -0.54121
 Alpha  occ. eigenvalues --   -0.53214  -0.52032  -0.49656  -0.49599  -0.49055
 Alpha  occ. eigenvalues --   -0.48293  -0.47865  -0.47495  -0.46605  -0.46136
 Alpha  occ. eigenvalues --   -0.45780  -0.45372  -0.45006  -0.44544  -0.44018
 Alpha  occ. eigenvalues --   -0.42424  -0.41912  -0.41123  -0.38539  -0.38404
 Alpha  occ. eigenvalues --   -0.38349  -0.37517  -0.36858  -0.36802  -0.36707
 Alpha  occ. eigenvalues --   -0.34950  -0.34659  -0.34453  -0.33881  -0.31634
 Alpha  occ. eigenvalues --   -0.29043  -0.26683  -0.25924  -0.24733  -0.24433
 Alpha  occ. eigenvalues --   -0.21383  -0.21336  -0.20444  -0.20084  -0.16470
 Alpha  occ. eigenvalues --   -0.15263  -0.14785
 Alpha virt. eigenvalues --   -0.04472  -0.02561  -0.00744  -0.00138   0.00859
 Alpha virt. eigenvalues --    0.01307   0.01985   0.03217   0.05285   0.05938
 Alpha virt. eigenvalues --    0.06076   0.07275   0.08809   0.09262   0.10070

  Beta  occ. eigenvalues --  -14.45822 -14.45822 -14.45328 -14.45327 -10.28451
  Beta  occ. eigenvalues --  -10.28451 -10.27716 -10.27716 -10.27496 -10.27496
  Beta  occ. eigenvalues --  -10.27291 -10.27290 -10.25401 -10.25400 -10.24186
  Beta  occ. eigenvalues --  -10.24186 -10.23979 -10.23979 -10.23512 -10.23511
  Beta  occ. eigenvalues --  -10.23458 -10.23457 -10.21605 -10.21602 -10.21241
  Beta  occ. eigenvalues --  -10.19240  -3.83055  -2.34807  -2.34767  -2.30938
  Beta  occ. eigenvalues --   -1.05839  -1.05777  -0.97010  -0.96682  -0.88184
  Beta  occ. eigenvalues --   -0.87937  -0.84993  -0.80299  -0.78778  -0.77915
  Beta  occ. eigenvalues --   -0.77807  -0.75570  -0.74999  -0.72985  -0.71816
  Beta  occ. eigenvalues --   -0.66521  -0.65179  -0.64555  -0.64106  -0.62583
  Beta  occ. eigenvalues --   -0.61396  -0.58930  -0.57207  -0.56643  -0.54121
  Beta  occ. eigenvalues --   -0.53214  -0.52032  -0.49656  -0.49599  -0.49055
  Beta  occ. eigenvalues --   -0.48293  -0.47865  -0.47495  -0.46605  -0.46136
  Beta  occ. eigenvalues --   -0.45780  -0.45372  -0.45006  -0.44544  -0.44018
  Beta  occ. eigenvalues --   -0.42424  -0.41912  -0.41123  -0.38539  -0.38404
  Beta  occ. eigenvalues --   -0.38349  -0.37517  -0.36858  -0.36802  -0.36707
  Beta  occ. eigenvalues --   -0.34950  -0.34659  -0.34453  -0.33881  -0.31634
  Beta  occ. eigenvalues --   -0.29043  -0.26683  -0.25924  -0.24733  -0.24433
  Beta  occ. eigenvalues --   -0.21383  -0.21336  -0.20444  -0.20084  -0.16470
  Beta  occ. eigenvalues --   -0.15263  -0.14785
  Beta virt. eigenvalues --   -0.04472  -0.02561  -0.00744  -0.00138   0.00859
  Beta virt. eigenvalues --    0.01307   0.01985   0.03217   0.05285   0.05938
  Beta virt. eigenvalues --    0.06076   0.07275   0.08809   0.09262   0.10070

 Mulliken charges and spin densities:
               1          2
     1  C   -0.168904  -0.000002
     2  C    0.346398   0.000000
     3  C   -0.214843  -0.000000
     4  C   -0.181238   0.000000
     5  C   -0.214842  -0.000000
     6  C    0.346400   0.000000
     7  H    0.156597  -0.000000
     8  H    0.157297  -0.000000
     9  H    0.156597  -0.000000
    10  C    0.315707   0.000000
    11  C    0.412568  -0.000000
    12  C    0.292432   0.000000
    13  C   -0.191721  -0.000000
    14  C   -0.210608  -0.000000
    15  C   -0.187606  -0.000000
    16  H    0.196887   0.000000
    17  C   -0.183881   0.000000
    18  H    0.176816   0.000000
    19  H    0.174272   0.000000
    20  H    0.171522  -0.000000
    21  C    0.315698   0.000000
    22  C    0.412566  -0.000000
    23  C    0.292433   0.000000
    24  C   -0.191718  -0.000000
    25  C   -0.210608  -0.000000
    26  C   -0.187604  -0.000000
    27  H    0.196887   0.000000
    28  C   -0.183879   0.000000
    29  H    0.176817   0.000000
    30  H    0.174271   0.000000
    31  H    0.171522  -0.000000
    32  N   -0.726312  -0.000000
    33  N   -0.583064  -0.000000
    34  N   -0.726317  -0.000000
    35  N   -0.583065  -0.000000
    36  C   -0.401069  -0.000000
    37  H    0.202155   0.000000
    38  H    0.202165  -0.000000
    39  H    0.226080  -0.000000
    40  C   -0.401069  -0.000000
    41  H    0.202166  -0.000000
    42  H    0.202155  -0.000000
    43  H    0.226081  -0.000000
    44  Co  -0.156142   0.000003
 Sum of Mulliken charges =  -0.00000  -0.00000

 Dipole moment (field-independent basis, Debye):
    X=             -0.0000    Y=             -3.6369    Z=             -0.0003  Tot=              3.6369
 Quadrupole moment (field-independent basis, Debye-Ang):
   XX=           -125.7532   YY=           -134.6471   ZZ=           -172.3542
   XY=              0.0001   XZ=             -0.0006   YZ=              0.0004

 Normal termination of Gaussian 16 at Wed Jul 17 21:25:06 2024.
