 Gaussian 16, Revision C.01,
 Gaussian 16:  ES64L-G16RevC.01  3-Jul-2019

 ----------------------------------------------------------------------
 # pbe1pbe em=gd3bj genecp g09default scf=(xqc,maxcycle=64) force guess
 =read nosymm
 ----------------------------------------------------------------------

 ----------
 Title Card
 ----------
 Symbolic Z-matrix:
 Charge =  0 Multiplicity = 3

                          Input orientation:
 ---------------------------------------------------------------------
 Center     Atomic      Atomic             Coordinates (Angstroms)
 Number     Number       Type             X           Y           Z
 ---------------------------------------------------------------------
      1          6           0        0.000001    0.811593    0.000097
      2          6           0       -1.285748    1.360976    0.000026
      3          6           0       -1.246500    2.759161   -0.000015
      4          6           0        0.000003    3.407336    0.000001
      5          6           0        1.246503    2.759160    0.000030
      6          6           0        1.285750    1.360980    0.000061
      7          1           0       -2.158681    3.344441   -0.000042
      8          1           0        0.000002    4.495135   -0.000007
      9          1           0        2.158689    3.344439    0.000044
     10          6           0        3.700534    0.581821   -0.000036
     11          6           0        1.928252   -0.913695    0.000142
     12          6           0        4.198369   -0.742994   -0.000097
     13          6           0        4.559234    1.663691   -0.000065
     14          6           0        5.564099   -0.997486   -0.000198
     15          6           0        5.943305    1.404828   -0.000173
     16          1           0        4.189599    2.681978    0.000003
     17          6           0        6.430148    0.105914   -0.000244
     18          1           0        5.941323   -2.015758   -0.000236
     19          1           0        6.633211    2.243186   -0.000197
     20          1           0        7.502746   -0.067139   -0.000329
     21          6           0       -3.700527    0.581806   -0.000047
     22          6           0       -1.928248   -0.913698    0.000110
     23          6           0       -4.198360   -0.742996   -0.000074
     24          6           0       -4.559233    1.663693   -0.000059
     25          6           0       -5.564094   -0.997497   -0.000102
     26          6           0       -5.943307    1.404813   -0.000103
     27          1           0       -4.189601    2.681968   -0.000026
     28          6           0       -6.430142    0.105911   -0.000126
     29          1           0       -5.941315   -2.015764   -0.000098
     30          1           0       -6.633213    2.243177   -0.000110
     31          1           0       -7.502742   -0.067152   -0.000154
     32          7           0       -2.311918    0.469359    0.000019
     33          7           0       -3.131415   -1.605588   -0.000044
     34          7           0        2.311922    0.469356    0.000077
     35          7           0        3.131421   -1.605583   -0.000025
     36          6           0        3.211949   -3.032179    0.000010
     37          1           0        3.727294   -3.408273   -0.893017
     38          1           0        3.726806   -3.408294    0.893314
     39          1           0        2.195849   -3.436358   -0.000289
     40          6           0       -3.211942   -3.032185    0.000046
     41          1           0       -3.726731   -3.408277    0.893398
     42          1           0       -3.727352   -3.408307   -0.892931
     43          1           0       -2.195841   -3.436362   -0.000321
     44         27           0        0.000004   -1.275060    0.000126
 ---------------------------------------------------------------------

 SCF Done:  E(UPBE1PBE) =  -1212.11063677     A.U. after   23 cycles

 Alpha  occ. eigenvalues --  -14.45274 -14.45274 -14.45143 -14.45143 -10.28084
 Alpha  occ. eigenvalues --  -10.28084 -10.27481 -10.27480 -10.27258 -10.27258
 Alpha  occ. eigenvalues --  -10.27167 -10.27167 -10.26766 -10.26765 -10.23650
 Alpha  occ. eigenvalues --  -10.23650 -10.23571 -10.23571 -10.23075 -10.23075
 Alpha  occ. eigenvalues --  -10.22988 -10.22988 -10.22543 -10.22530 -10.22450
 Alpha  occ. eigenvalues --  -10.21139  -3.93396  -2.45227  -2.43704  -2.43277
 Alpha  occ. eigenvalues --   -1.05671  -1.05594  -0.97068  -0.96678  -0.88028
 Alpha  occ. eigenvalues --   -0.87615  -0.85634  -0.80431  -0.78833  -0.77624
 Alpha  occ. eigenvalues --   -0.77613  -0.75522  -0.74844  -0.73247  -0.72353
 Alpha  occ. eigenvalues --   -0.66734  -0.65293  -0.64358  -0.64101  -0.62650
 Alpha  occ. eigenvalues --   -0.61327  -0.58943  -0.57609  -0.56572  -0.53955
 Alpha  occ. eigenvalues --   -0.53074  -0.52299  -0.49684  -0.49602  -0.49121
 Alpha  occ. eigenvalues --   -0.48604  -0.48061  -0.47214  -0.46728  -0.45869
 Alpha  occ. eigenvalues --   -0.45680  -0.45336  -0.44822  -0.44803  -0.44110
 Alpha  occ. eigenvalues --   -0.42781  -0.41897  -0.41315  -0.38931  -0.38520
 Alpha  occ. eigenvalues --   -0.38467  -0.37526  -0.37319  -0.37166  -0.36919
 Alpha  occ. eigenvalues --   -0.36348  -0.35061  -0.34566  -0.33983  -0.31990
 Alpha  occ. eigenvalues --   -0.31207  -0.30442  -0.26870  -0.26614  -0.26399
 Alpha  occ. eigenvalues --   -0.26021  -0.25950  -0.24524  -0.24235  -0.22925
 Alpha  occ. eigenvalues --   -0.20915  -0.20743  -0.10075
 Alpha virt. eigenvalues --   -0.06411  -0.02989  -0.00285  -0.00079   0.00350
 Alpha virt. eigenvalues --    0.02240   0.02767   0.03374   0.03763   0.05603
 Alpha virt. eigenvalues --    0.06115   0.07581   0.07599   0.09642   0.10195

  Beta  occ. eigenvalues --  -14.45147 -14.45147 -14.45117 -14.45117 -10.27865
  Beta  occ. eigenvalues --  -10.27865 -10.27483 -10.27483 -10.27268 -10.27267
  Beta  occ. eigenvalues --  -10.27205 -10.27204 -10.26657 -10.26656 -10.23590
  Beta  occ. eigenvalues --  -10.23590 -10.23548 -10.23548 -10.23082 -10.23082
  Beta  occ. eigenvalues --  -10.22954 -10.22954 -10.22630 -10.22626 -10.22354
  Beta  occ. eigenvalues --  -10.21770  -3.85451  -2.36648  -2.36130  -2.33832
  Beta  occ. eigenvalues --   -1.05473  -1.05390  -0.96911  -0.96480  -0.88038
  Beta  occ. eigenvalues --   -0.87545  -0.85760  -0.80379  -0.78818  -0.77568
  Beta  occ. eigenvalues --   -0.77557  -0.75395  -0.74647  -0.73261  -0.72630
  Beta  occ. eigenvalues --   -0.66776  -0.65227  -0.64114  -0.64090  -0.62656
  Beta  occ. eigenvalues --   -0.61232  -0.58942  -0.57727  -0.56574  -0.53939
  Beta  occ. eigenvalues --   -0.53062  -0.52285  -0.49227  -0.49158  -0.49092
  Beta  occ. eigenvalues --   -0.48637  -0.48241  -0.47194  -0.46715  -0.45839
  Beta  occ. eigenvalues --   -0.45687  -0.45308  -0.44813  -0.44482  -0.43804
  Beta  occ. eigenvalues --   -0.42833  -0.41876  -0.41330  -0.38680  -0.38619
  Beta  occ. eigenvalues --   -0.38566  -0.37308  -0.37259  -0.36520  -0.36490
  Beta  occ. eigenvalues --   -0.35697  -0.35149  -0.34030  -0.33339  -0.31668
  Beta  occ. eigenvalues --   -0.29811  -0.27188  -0.26522  -0.25928  -0.24795
  Beta  occ. eigenvalues --   -0.23789  -0.23042  -0.21955  -0.20749  -0.19782
  Beta  occ. eigenvalues --   -0.19578
  Beta virt. eigenvalues --   -0.04417  -0.03915  -0.00761  -0.00233  -0.00119
  Beta virt. eigenvalues --    0.01365   0.01753   0.02430   0.03502   0.05344
  Beta virt. eigenvalues --    0.05576   0.05996   0.07898   0.08683   0.09276

 Mulliken charges and spin densities:
               1          2
     1  C   -0.231668  -0.369456
     2  C    0.392170   0.077946
     3  C   -0.215818  -0.062617
     4  C   -0.178641   0.083799
     5  C   -0.215817  -0.062615
     6  C    0.392172   0.077945
     7  H    0.168663  -0.004486
     8  H    0.165062  -0.004115
     9  H    0.168663  -0.004486
    10  C    0.315842  -0.000916
    11  C    0.372157   0.190619
    12  C    0.295426  -0.022493
    13  C   -0.196544   0.014027
    14  C   -0.216956   0.044039
    15  C   -0.189837   0.024613
    16  H    0.190517  -0.000970
    17  C   -0.183145  -0.009563
    18  H    0.173270  -0.002294
    19  H    0.170795  -0.001470
    20  H    0.168907   0.000144
    21  C    0.315832  -0.000916
    22  C    0.372153   0.190626
    23  C    0.295428  -0.022493
    24  C   -0.196541   0.014028
    25  C   -0.216957   0.044041
    26  C   -0.189836   0.024613
    27  H    0.190517  -0.000970
    28  C   -0.183143  -0.009562
    29  H    0.173271  -0.002294
    30  H    0.170794  -0.001470
    31  H    0.168907   0.000144
    32  N   -0.732970  -0.005368
    33  N   -0.586695   0.036971
    34  N   -0.732974  -0.005366
    35  N   -0.586695   0.036969
    36  C   -0.399784  -0.004447
    37  H    0.201942   0.002006
    38  H    0.201949   0.002009
    39  H    0.217681  -0.000883
    40  C   -0.399783  -0.004448
    41  H    0.201949   0.002010
    42  H    0.201941   0.002005
    43  H    0.217681  -0.000883
    44  Co  -0.049883   1.736027
 Sum of Mulliken charges =  -0.00000   2.00000

 Dipole moment (field-independent basis, Debye):
    X=              0.0001    Y=             -3.3743    Z=             -0.0001  Tot=              3.3743
 Quadrupole moment (field-independent basis, Debye-Ang):
   XX=           -136.3243   YY=           -133.1468   ZZ=           -173.9177
   XY=              0.0001   XZ=             -0.0005   YZ=             -0.0000

 Normal termination of Gaussian 16 at Wed Jul 17 21:24:26 2024.
