 Gaussian 16, Revision C.01,
 Gaussian 16:  ES64L-G16RevC.01  3-Jul-2019

 ----------------------------------------------------------------------
 # pbe1pbe em=gd3bj genecp g09default scf=(xqc,maxcycle=64) force guess
 =read nosymm
 ----------------------------------------------------------------------

 ----------
 Title Card
 ----------
 Symbolic Z-matrix:
 Charge =  0 Multiplicity = 1

                          Input orientation:
 ---------------------------------------------------------------------
 Center     Atomic      Atomic             Coordinates (Angstroms)
 Number     Number       Type             X           Y           Z
 ---------------------------------------------------------------------
      1          6           0        0.000002    0.813361    0.000096
      2          6           0       -1.286869    1.360496    0.000027
      3          6           0       -1.247011    2.758959   -0.000013
      4          6           0        0.000002    3.406228   -0.000001
      5          6           0        1.247017    2.758959    0.000030
      6          6           0        1.286872    1.360496    0.000061
      7          1           0       -2.157440    3.346193   -0.000043
      8          1           0        0.000002    4.494051   -0.000008
      9          1           0        2.157446    3.346190    0.000041
     10          6           0        3.704103    0.582225   -0.000039
     11          6           0        1.931142   -0.914285    0.000141
     12          6           0        4.202361   -0.742537   -0.000097
     13          6           0        4.563718    1.663007   -0.000068
     14          6           0        5.568891   -0.996770   -0.000199
     15          6           0        5.947669    1.404912   -0.000175
     16          1           0        4.195424    2.681956    0.000000
     17          6           0        6.435358    0.106458   -0.000245
     18          1           0        5.947675   -2.013798   -0.000234
     19          1           0        6.637457    2.242995   -0.000197
     20          1           0        7.507909   -0.065807   -0.000329
     21          6           0       -3.704099    0.582222   -0.000050
     22          6           0       -1.931137   -0.914288    0.000110
     23          6           0       -4.202356   -0.742544   -0.000077
     24          6           0       -4.563717    1.662998   -0.000062
     25          6           0       -5.568885   -0.996776   -0.000103
     26          6           0       -5.947666    1.404906   -0.000104
     27          1           0       -4.195424    2.681949   -0.000027
     28          6           0       -6.435355    0.106447   -0.000127
     29          1           0       -5.947667   -2.013805   -0.000096
     30          1           0       -6.637457    2.242983   -0.000110
     31          1           0       -7.507903   -0.065819   -0.000154
     32          7           0       -2.314722    0.469079    0.000026
     33          7           0       -3.135906   -1.605665   -0.000041
     34          7           0        2.314726    0.469081    0.000081
     35          7           0        3.135912   -1.605660   -0.000020
     36          6           0        3.216578   -3.032709    0.000012
     37          1           0        3.731863   -3.409813   -0.892848
     38          1           0        3.731364   -3.409839    0.893153
     39          1           0        2.200269   -3.435779   -0.000297
     40          6           0       -3.216571   -3.032715    0.000047
     41          1           0       -3.731288   -3.409820    0.893238
     42          1           0       -3.731923   -3.409848   -0.892761
     43          1           0       -2.200260   -3.435784   -0.000330
     44         27           0        0.000003   -1.278012    0.000135
 ---------------------------------------------------------------------

 SCF Done:  E(UPBE1PBE) =  -1212.10942671     A.U. after   17 cycles

 Alpha  occ. eigenvalues --  -14.45827 -14.45827 -14.45352 -14.45352 -10.28488
 Alpha  occ. eigenvalues --  -10.28487 -10.27734 -10.27734 -10.27513 -10.27512
 Alpha  occ. eigenvalues --  -10.27288 -10.27287 -10.25436 -10.25435 -10.24188
 Alpha  occ. eigenvalues --  -10.24188 -10.23983 -10.23983 -10.23510 -10.23510
 Alpha  occ. eigenvalues --  -10.23453 -10.23453 -10.21612 -10.21609 -10.21238
 Alpha  occ. eigenvalues --  -10.19264  -3.83043  -2.34801  -2.34754  -2.30920
 Alpha  occ. eigenvalues --   -1.05803  -1.05742  -0.96973  -0.96646  -0.88181
 Alpha  occ. eigenvalues --   -0.87935  -0.84994  -0.80285  -0.78770  -0.77908
 Alpha  occ. eigenvalues --   -0.77801  -0.75566  -0.74979  -0.72984  -0.71813
 Alpha  occ. eigenvalues --   -0.66511  -0.65175  -0.64555  -0.64106  -0.62566
 Alpha  occ. eigenvalues --   -0.61386  -0.58935  -0.57200  -0.56638  -0.54115
 Alpha  occ. eigenvalues --   -0.53209  -0.52046  -0.49629  -0.49573  -0.49041
 Alpha  occ. eigenvalues --   -0.48293  -0.47869  -0.47511  -0.46599  -0.46124
 Alpha  occ. eigenvalues --   -0.45785  -0.45377  -0.45006  -0.44522  -0.43998
 Alpha  occ. eigenvalues --   -0.42425  -0.41905  -0.41121  -0.38533  -0.38411
 Alpha  occ. eigenvalues --   -0.38358  -0.37510  -0.36853  -0.36788  -0.36705
 Alpha  occ. eigenvalues --   -0.34917  -0.34678  -0.34451  -0.33872  -0.31635
 Alpha  occ. eigenvalues --   -0.29056  -0.26690  -0.25925  -0.24721  -0.24423
 Alpha  occ. eigenvalues --   -0.21345  -0.21307  -0.20447  -0.20075  -0.16474
 Alpha  occ. eigenvalues --   -0.15251  -0.14773
 Alpha virt. eigenvalues --   -0.04472  -0.02563  -0.00762  -0.00145   0.00858
 Alpha virt. eigenvalues --    0.01307   0.01980   0.03201   0.05284   0.05947
 Alpha virt. eigenvalues --    0.06055   0.07267   0.08768   0.09257   0.10069

  Beta  occ. eigenvalues --  -14.45827 -14.45827 -14.45352 -14.45352 -10.28488
  Beta  occ. eigenvalues --  -10.28487 -10.27734 -10.27734 -10.27513 -10.27512
  Beta  occ. eigenvalues --  -10.27288 -10.27287 -10.25436 -10.25435 -10.24188
  Beta  occ. eigenvalues --  -10.24188 -10.23983 -10.23983 -10.23510 -10.23510
  Beta  occ. eigenvalues --  -10.23453 -10.23453 -10.21612 -10.21609 -10.21238
  Beta  occ. eigenvalues --  -10.19264  -3.83043  -2.34801  -2.34754  -2.30920
  Beta  occ. eigenvalues --   -1.05803  -1.05742  -0.96973  -0.96646  -0.88181
  Beta  occ. eigenvalues --   -0.87935  -0.84994  -0.80285  -0.78770  -0.77908
  Beta  occ. eigenvalues --   -0.77801  -0.75566  -0.74979  -0.72984  -0.71813
  Beta  occ. eigenvalues --   -0.66511  -0.65175  -0.64555  -0.64106  -0.62566
  Beta  occ. eigenvalues --   -0.61386  -0.58935  -0.57200  -0.56638  -0.54115
  Beta  occ. eigenvalues --   -0.53209  -0.52046  -0.49629  -0.49573  -0.49041
  Beta  occ. eigenvalues --   -0.48293  -0.47869  -0.47511  -0.46599  -0.46124
  Beta  occ. eigenvalues --   -0.45785  -0.45377  -0.45006  -0.44522  -0.43998
  Beta  occ. eigenvalues --   -0.42425  -0.41905  -0.41121  -0.38533  -0.38411
  Beta  occ. eigenvalues --   -0.38358  -0.37510  -0.36853  -0.36788  -0.36705
  Beta  occ. eigenvalues --   -0.34917  -0.34678  -0.34451  -0.33872  -0.31635
  Beta  occ. eigenvalues --   -0.29056  -0.26690  -0.25925  -0.24721  -0.24423
  Beta  occ. eigenvalues --   -0.21345  -0.21307  -0.20447  -0.20075  -0.16474
  Beta  occ. eigenvalues --   -0.15251  -0.14773
  Beta virt. eigenvalues --   -0.04472  -0.02563  -0.00762  -0.00145   0.00858
  Beta virt. eigenvalues --    0.01307   0.01980   0.03201   0.05284   0.05947
  Beta virt. eigenvalues --    0.06055   0.07267   0.08768   0.09257   0.10069

 Mulliken charges and spin densities:
               1          2
     1  C   -0.167207   0.000000
     2  C    0.346446  -0.000000
     3  C   -0.215264   0.000000
     4  C   -0.180647  -0.000000
     5  C   -0.215264   0.000000
     6  C    0.346446  -0.000000
     7  H    0.156602   0.000000
     8  H    0.157154   0.000000
     9  H    0.156602   0.000000
    10  C    0.316494  -0.000000
    11  C    0.413100   0.000000
    12  C    0.292460  -0.000000
    13  C   -0.192049   0.000000
    14  C   -0.210542   0.000000
    15  C   -0.187377   0.000000
    16  H    0.196759  -0.000000
    17  C   -0.183650   0.000000
    18  H    0.176811  -0.000000
    19  H    0.174252  -0.000000
    20  H    0.171621   0.000000
    21  C    0.316495  -0.000000
    22  C    0.413100   0.000000
    23  C    0.292460  -0.000000
    24  C   -0.192050   0.000000
    25  C   -0.210541   0.000000
    26  C   -0.187378   0.000000
    27  H    0.196759  -0.000000
    28  C   -0.183650   0.000000
    29  H    0.176810  -0.000000
    30  H    0.174252  -0.000000
    31  H    0.171621   0.000000
    32  N   -0.727053   0.000000
    33  N   -0.583440   0.000000
    34  N   -0.727052   0.000000
    35  N   -0.583441   0.000000
    36  C   -0.400881   0.000000
    37  H    0.202088   0.000000
    38  H    0.202099  -0.000000
    39  H    0.226122   0.000000
    40  C   -0.400881   0.000000
    41  H    0.202100  -0.000000
    42  H    0.202088   0.000000
    43  H    0.226122   0.000000
    44  Co  -0.158496  -0.000000
 Sum of Mulliken charges =  -0.00000   0.00000

 Dipole moment (field-independent basis, Debye):
    X=              0.0000    Y=             -3.6240    Z=             -0.0002  Tot=              3.6240
 Quadrupole moment (field-independent basis, Debye-Ang):
   XX=           -125.5852   YY=           -134.6496   ZZ=           -172.3714
   XY=              0.0000   XZ=             -0.0006   YZ=              0.0004

 Normal termination of Gaussian 16 at Wed Jul 17 21:26:24 2024.
