 Gaussian 16, Revision C.01,
 Gaussian 16:  ES64L-G16RevC.01  3-Jul-2019

 ----------------------------------------------------------------------
 # pbe1pbe em=gd3bj genecp g09default scf=(xqc,maxcycle=64) force guess
 =read nosymm
 ----------------------------------------------------------------------

 ----------
 Title Card
 ----------
 Symbolic Z-matrix:
 Charge =  0 Multiplicity = 3

                          Input orientation:
 ---------------------------------------------------------------------
 Center     Atomic      Atomic             Coordinates (Angstroms)
 Number     Number       Type             X           Y           Z
 ---------------------------------------------------------------------
      1          6           0        0.000002    0.813361    0.000096
      2          6           0       -1.286869    1.360496    0.000027
      3          6           0       -1.247011    2.758959   -0.000013
      4          6           0        0.000002    3.406228   -0.000001
      5          6           0        1.247017    2.758959    0.000030
      6          6           0        1.286872    1.360496    0.000061
      7          1           0       -2.157440    3.346193   -0.000043
      8          1           0        0.000002    4.494051   -0.000008
      9          1           0        2.157446    3.346190    0.000041
     10          6           0        3.704103    0.582225   -0.000039
     11          6           0        1.931142   -0.914285    0.000141
     12          6           0        4.202361   -0.742537   -0.000097
     13          6           0        4.563718    1.663007   -0.000068
     14          6           0        5.568891   -0.996770   -0.000199
     15          6           0        5.947669    1.404912   -0.000175
     16          1           0        4.195424    2.681956    0.000000
     17          6           0        6.435358    0.106458   -0.000245
     18          1           0        5.947675   -2.013798   -0.000234
     19          1           0        6.637457    2.242995   -0.000197
     20          1           0        7.507909   -0.065807   -0.000329
     21          6           0       -3.704099    0.582222   -0.000050
     22          6           0       -1.931137   -0.914288    0.000110
     23          6           0       -4.202356   -0.742544   -0.000077
     24          6           0       -4.563717    1.662998   -0.000062
     25          6           0       -5.568885   -0.996776   -0.000103
     26          6           0       -5.947666    1.404906   -0.000104
     27          1           0       -4.195424    2.681949   -0.000027
     28          6           0       -6.435355    0.106447   -0.000127
     29          1           0       -5.947667   -2.013805   -0.000096
     30          1           0       -6.637457    2.242983   -0.000110
     31          1           0       -7.507903   -0.065819   -0.000154
     32          7           0       -2.314722    0.469079    0.000026
     33          7           0       -3.135906   -1.605665   -0.000041
     34          7           0        2.314726    0.469081    0.000081
     35          7           0        3.135912   -1.605660   -0.000020
     36          6           0        3.216578   -3.032709    0.000012
     37          1           0        3.731863   -3.409813   -0.892848
     38          1           0        3.731364   -3.409839    0.893153
     39          1           0        2.200269   -3.435779   -0.000297
     40          6           0       -3.216571   -3.032715    0.000047
     41          1           0       -3.731288   -3.409820    0.893238
     42          1           0       -3.731923   -3.409848   -0.892761
     43          1           0       -2.200260   -3.435784   -0.000330
     44         27           0        0.000003   -1.278012    0.000135
 ---------------------------------------------------------------------

 SCF Done:  E(UPBE1PBE) =  -1212.10981622     A.U. after   24 cycles

 Alpha  occ. eigenvalues --  -14.45275 -14.45275 -14.45168 -14.45168 -10.28111
 Alpha  occ. eigenvalues --  -10.28111 -10.27497 -10.27497 -10.27251 -10.27250
 Alpha  occ. eigenvalues --  -10.27182 -10.27181 -10.26810 -10.26809 -10.23650
 Alpha  occ. eigenvalues --  -10.23649 -10.23573 -10.23573 -10.23074 -10.23074
 Alpha  occ. eigenvalues --  -10.22979 -10.22979 -10.22556 -10.22544 -10.22453
 Alpha  occ. eigenvalues --  -10.21182  -3.93385  -2.45196  -2.43704  -2.43285
 Alpha  occ. eigenvalues --   -1.05632  -1.05556  -0.97030  -0.96640  -0.88023
 Alpha  occ. eigenvalues --   -0.87612  -0.85640  -0.80419  -0.78823  -0.77615
 Alpha  occ. eigenvalues --   -0.77603  -0.75521  -0.74822  -0.73243  -0.72355
 Alpha  occ. eigenvalues --   -0.66725  -0.65286  -0.64356  -0.64100  -0.62630
 Alpha  occ. eigenvalues --   -0.61315  -0.58950  -0.57601  -0.56570  -0.53949
 Alpha  occ. eigenvalues --   -0.53067  -0.52314  -0.49654  -0.49571  -0.49104
 Alpha  occ. eigenvalues --   -0.48603  -0.48059  -0.47228  -0.46735  -0.45856
 Alpha  occ. eigenvalues --   -0.45676  -0.45337  -0.44801  -0.44798  -0.44087
 Alpha  occ. eigenvalues --   -0.42786  -0.41887  -0.41307  -0.38927  -0.38527
 Alpha  occ. eigenvalues --   -0.38466  -0.37492  -0.37318  -0.37171  -0.36913
 Alpha  occ. eigenvalues --   -0.36339  -0.35078  -0.34563  -0.33970  -0.31988
 Alpha  occ. eigenvalues --   -0.31188  -0.30446  -0.26872  -0.26603  -0.26350
 Alpha  occ. eigenvalues --   -0.26026  -0.25922  -0.24512  -0.24247  -0.22923
 Alpha  occ. eigenvalues --   -0.20937  -0.20765  -0.10070
 Alpha virt. eigenvalues --   -0.06421  -0.03015  -0.00293  -0.00089   0.00350
 Alpha virt. eigenvalues --    0.02236   0.02761   0.03336   0.03758   0.05612
 Alpha virt. eigenvalues --    0.06104   0.07558   0.07565   0.09633   0.10193

  Beta  occ. eigenvalues --  -14.45149 -14.45149 -14.45142 -14.45142 -10.27891
  Beta  occ. eigenvalues --  -10.27891 -10.27499 -10.27499 -10.27260 -10.27260
  Beta  occ. eigenvalues --  -10.27219 -10.27219 -10.26701 -10.26700 -10.23589
  Beta  occ. eigenvalues --  -10.23589 -10.23550 -10.23550 -10.23082 -10.23082
  Beta  occ. eigenvalues --  -10.22945 -10.22945 -10.22645 -10.22641 -10.22356
  Beta  occ. eigenvalues --  -10.21824  -3.85400  -2.36592  -2.36063  -2.33800
  Beta  occ. eigenvalues --   -1.05435  -1.05352  -0.96875  -0.96443  -0.88036
  Beta  occ. eigenvalues --   -0.87541  -0.85770  -0.80368  -0.78809  -0.77558
  Beta  occ. eigenvalues --   -0.77548  -0.75397  -0.74625  -0.73256  -0.72640
  Beta  occ. eigenvalues --   -0.66768  -0.65223  -0.64111  -0.64090  -0.62638
  Beta  occ. eigenvalues --   -0.61219  -0.58950  -0.57725  -0.56573  -0.53935
  Beta  occ. eigenvalues --   -0.53055  -0.52302  -0.49197  -0.49128  -0.49080
  Beta  occ. eigenvalues --   -0.48637  -0.48240  -0.47208  -0.46729  -0.45826
  Beta  occ. eigenvalues --   -0.45683  -0.45309  -0.44811  -0.44460  -0.43782
  Beta  occ. eigenvalues --   -0.42840  -0.41866  -0.41323  -0.38680  -0.38618
  Beta  occ. eigenvalues --   -0.38574  -0.37309  -0.37269  -0.36514  -0.36473
  Beta  occ. eigenvalues --   -0.35665  -0.35166  -0.34028  -0.33328  -0.31668
  Beta  occ. eigenvalues --   -0.29819  -0.27137  -0.26530  -0.25931  -0.24773
  Beta  occ. eigenvalues --   -0.23776  -0.22999  -0.21958  -0.20773  -0.19787
  Beta  occ. eigenvalues --   -0.19556
  Beta virt. eigenvalues --   -0.04410  -0.03895  -0.00777  -0.00211  -0.00126
  Beta virt. eigenvalues --    0.01373   0.01759   0.02427   0.03491   0.05340
  Beta virt. eigenvalues --    0.05565   0.06006   0.07893   0.08642   0.09274

 Mulliken charges and spin densities:
               1          2
     1  C   -0.229473  -0.375652
     2  C    0.392242   0.078121
     3  C   -0.216247  -0.062714
     4  C   -0.178114   0.083471
     5  C   -0.216247  -0.062714
     6  C    0.392242   0.078120
     7  H    0.168764  -0.004626
     8  H    0.164958  -0.004102
     9  H    0.168764  -0.004626
    10  C    0.316609  -0.000925
    11  C    0.372457   0.190802
    12  C    0.295455  -0.022501
    13  C   -0.196884   0.013995
    14  C   -0.216910   0.044116
    15  C   -0.189623   0.024639
    16  H    0.190357  -0.000970
    17  C   -0.182910  -0.009606
    18  H    0.173259  -0.002296
    19  H    0.170760  -0.001471
    20  H    0.168996   0.000145
    21  C    0.316611  -0.000924
    22  C    0.372456   0.190804
    23  C    0.295455  -0.022501
    24  C   -0.196884   0.013994
    25  C   -0.216910   0.044116
    26  C   -0.189623   0.024639
    27  H    0.190356  -0.000970
    28  C   -0.182911  -0.009606
    29  H    0.173259  -0.002296
    30  H    0.170760  -0.001471
    31  H    0.168996   0.000145
    32  N   -0.733681  -0.005443
    33  N   -0.587008   0.036666
    34  N   -0.733680  -0.005443
    35  N   -0.587008   0.036665
    36  C   -0.399586  -0.004426
    37  H    0.201841   0.001987
    38  H    0.201848   0.001991
    39  H    0.217760  -0.000895
    40  C   -0.399586  -0.004426
    41  H    0.201849   0.001991
    42  H    0.201841   0.001987
    43  H    0.217760  -0.000895
    44  Co  -0.052371   1.743104
 Sum of Mulliken charges =  -0.00000   2.00000

 Dipole moment (field-independent basis, Debye):
    X=              0.0000    Y=             -3.3546    Z=             -0.0001  Tot=              3.3546
 Quadrupole moment (field-independent basis, Debye-Ang):
   XX=           -136.2183   YY=           -133.1575   ZZ=           -173.9296
   XY=              0.0000   XZ=             -0.0005   YZ=              0.0000

 Normal termination of Gaussian 16 at Wed Jul 17 21:25:53 2024.
