 Gaussian 16, Revision C.01,
 Gaussian 16:  ES64L-G16RevC.01  3-Jul-2019

 ----------------------------------------------------------------------
 # pbe1pbe em=gd3bj genecp g09default scf=(xqc,maxcycle=64) force guess
 =read nosymm
 ----------------------------------------------------------------------

 ----------
 Title Card
 ----------
 Symbolic Z-matrix:
 Charge =  0 Multiplicity = 1

                          Input orientation:
 ---------------------------------------------------------------------
 Center     Atomic      Atomic             Coordinates (Angstroms)
 Number     Number       Type             X           Y           Z
 ---------------------------------------------------------------------
      1          6           0       -0.000000    0.805107    0.000092
      2          6           0       -1.286165    1.358334    0.000035
      3          6           0       -1.246626    2.755675   -0.000010
      4          6           0        0.000006    3.401601   -0.000002
      5          6           0        1.246623    2.755673    0.000031
      6          6           0        1.286173    1.358339    0.000067
      7          1           0       -2.155877    3.345859   -0.000046
      8          1           0        0.000002    4.489588   -0.000011
      9          1           0        2.155885    3.345859    0.000036
     10          6           0        3.705251    0.582659   -0.000040
     11          6           0        1.932081   -0.913525    0.000140
     12          6           0        4.204415   -0.741809   -0.000099
     13          6           0        4.566489    1.663029   -0.000071
     14          6           0        5.571095   -0.995596   -0.000200
     15          6           0        5.950138    1.404700   -0.000177
     16          1           0        4.200817    2.682520   -0.000002
     17          6           0        6.438032    0.106502   -0.000246
     18          1           0        5.952832   -2.011940   -0.000232
     19          1           0        6.639808    2.242520   -0.000197
     20          1           0        7.511022   -0.064420   -0.000328
     21          6           0       -3.705243    0.582631   -0.000051
     22          6           0       -1.932078   -0.913526    0.000110
     23          6           0       -4.204394   -0.741801   -0.000080
     24          6           0       -4.566486    1.663043   -0.000065
     25          6           0       -5.571098   -0.995616   -0.000106
     26          6           0       -5.950142    1.404669   -0.000106
     27          1           0       -4.200819    2.682507   -0.000027
     28          6           0       -6.438021    0.106512   -0.000128
     29          1           0       -5.952822   -2.011944   -0.000095
     30          1           0       -6.639808    2.242513   -0.000110
     31          1           0       -7.511021   -0.064434   -0.000153
     32          7           0       -2.315930    0.469564    0.000035
     33          7           0       -3.137009   -1.605708   -0.000040
     34          7           0        2.315931    0.469562    0.000087
     35          7           0        3.137009   -1.605704   -0.000018
     36          6           0        3.220146   -3.031375    0.000013
     37          1           0        3.736240   -3.408413   -0.892583
     38          1           0        3.735729   -3.408447    0.892896
     39          1           0        2.204360   -3.436802   -0.000305
     40          6           0       -3.220136   -3.031382    0.000048
     41          1           0       -3.735652   -3.408426    0.892983
     42          1           0       -3.736301   -3.408448   -0.892495
     43          1           0       -2.204352   -3.436807   -0.000339
     44         27           0        0.000001   -1.268766    0.000132
 ---------------------------------------------------------------------

 SCF Done:  E(UPBE1PBE) =  -1212.11180779     A.U. after   18 cycles

 Alpha  occ. eigenvalues --  -14.45832 -14.45832 -14.45344 -14.45344 -10.28489
 Alpha  occ. eigenvalues --  -10.28489 -10.27750 -10.27750 -10.27524 -10.27524
 Alpha  occ. eigenvalues --  -10.27280 -10.27280 -10.25407 -10.25406 -10.24194
 Alpha  occ. eigenvalues --  -10.24193 -10.23981 -10.23981 -10.23501 -10.23501
 Alpha  occ. eigenvalues --  -10.23443 -10.23443 -10.21573 -10.21570 -10.21191
 Alpha  occ. eigenvalues --  -10.19254  -3.83056  -2.34821  -2.34755  -2.30940
 Alpha  occ. eigenvalues --   -1.05789  -1.05727  -0.96977  -0.96651  -0.88185
 Alpha  occ. eigenvalues --   -0.87941  -0.84984  -0.80290  -0.78772  -0.77900
 Alpha  occ. eigenvalues --   -0.77801  -0.75567  -0.74977  -0.72970  -0.71806
 Alpha  occ. eigenvalues --   -0.66514  -0.65167  -0.64548  -0.64094  -0.62569
 Alpha  occ. eigenvalues --   -0.61382  -0.58923  -0.57204  -0.56632  -0.54111
 Alpha  occ. eigenvalues --   -0.53201  -0.52037  -0.49622  -0.49565  -0.49033
 Alpha  occ. eigenvalues --   -0.48267  -0.47879  -0.47528  -0.46602  -0.46116
 Alpha  occ. eigenvalues --   -0.45790  -0.45379  -0.45023  -0.44515  -0.43991
 Alpha  occ. eigenvalues --   -0.42402  -0.41881  -0.41105  -0.38526  -0.38414
 Alpha  occ. eigenvalues --   -0.38360  -0.37489  -0.36858  -0.36759  -0.36705
 Alpha  occ. eigenvalues --   -0.34941  -0.34676  -0.34441  -0.33849  -0.31622
 Alpha  occ. eigenvalues --   -0.29041  -0.26692  -0.25931  -0.24729  -0.24430
 Alpha  occ. eigenvalues --   -0.21532  -0.21340  -0.20474  -0.20111  -0.16438
 Alpha  occ. eigenvalues --   -0.15260  -0.14790
 Alpha virt. eigenvalues --   -0.04487  -0.02528  -0.00754  -0.00136   0.00850
 Alpha virt. eigenvalues --    0.01319   0.01974   0.03201   0.05310   0.05954
 Alpha virt. eigenvalues --    0.06113   0.07274   0.08780   0.09264   0.10064

  Beta  occ. eigenvalues --  -14.45832 -14.45832 -14.45344 -14.45344 -10.28489
  Beta  occ. eigenvalues --  -10.28489 -10.27750 -10.27750 -10.27524 -10.27524
  Beta  occ. eigenvalues --  -10.27280 -10.27280 -10.25407 -10.25406 -10.24194
  Beta  occ. eigenvalues --  -10.24193 -10.23981 -10.23981 -10.23501 -10.23501
  Beta  occ. eigenvalues --  -10.23443 -10.23443 -10.21573 -10.21570 -10.21191
  Beta  occ. eigenvalues --  -10.19254  -3.83056  -2.34821  -2.34755  -2.30940
  Beta  occ. eigenvalues --   -1.05789  -1.05727  -0.96977  -0.96651  -0.88185
  Beta  occ. eigenvalues --   -0.87941  -0.84984  -0.80290  -0.78772  -0.77900
  Beta  occ. eigenvalues --   -0.77801  -0.75567  -0.74977  -0.72970  -0.71806
  Beta  occ. eigenvalues --   -0.66514  -0.65167  -0.64548  -0.64094  -0.62569
  Beta  occ. eigenvalues --   -0.61382  -0.58923  -0.57204  -0.56632  -0.54111
  Beta  occ. eigenvalues --   -0.53201  -0.52037  -0.49622  -0.49565  -0.49033
  Beta  occ. eigenvalues --   -0.48267  -0.47879  -0.47528  -0.46602  -0.46116
  Beta  occ. eigenvalues --   -0.45790  -0.45379  -0.45023  -0.44515  -0.43991
  Beta  occ. eigenvalues --   -0.42402  -0.41881  -0.41105  -0.38526  -0.38414
  Beta  occ. eigenvalues --   -0.38360  -0.37489  -0.36858  -0.36759  -0.36705
  Beta  occ. eigenvalues --   -0.34941  -0.34676  -0.34441  -0.33849  -0.31622
  Beta  occ. eigenvalues --   -0.29041  -0.26692  -0.25931  -0.24729  -0.24430
  Beta  occ. eigenvalues --   -0.21532  -0.21340  -0.20474  -0.20111  -0.16438
  Beta  occ. eigenvalues --   -0.15260  -0.14790
  Beta virt. eigenvalues --   -0.04487  -0.02528  -0.00754  -0.00136   0.00850
  Beta virt. eigenvalues --    0.01319   0.01974   0.03201   0.05310   0.05954
  Beta virt. eigenvalues --    0.06113   0.07274   0.08780   0.09264   0.10064

 Mulliken charges and spin densities:
               1          2
     1  C   -0.169294  -0.000001
     2  C    0.345395   0.000000
     3  C   -0.214047  -0.000000
     4  C   -0.181734   0.000000
     5  C   -0.214044  -0.000000
     6  C    0.345397   0.000000
     7  H    0.156777  -0.000000
     8  H    0.156711  -0.000000
     9  H    0.156776  -0.000000
    10  C    0.316602   0.000000
    11  C    0.412333  -0.000000
    12  C    0.292270   0.000000
    13  C   -0.192107  -0.000000
    14  C   -0.210689  -0.000000
    15  C   -0.187062  -0.000000
    16  H    0.196575   0.000000
    17  C   -0.183461   0.000000
    18  H    0.176833   0.000000
    19  H    0.174170   0.000000
    20  H    0.171677  -0.000000
    21  C    0.316586   0.000000
    22  C    0.412326  -0.000000
    23  C    0.292266   0.000000
    24  C   -0.192101  -0.000000
    25  C   -0.210687  -0.000000
    26  C   -0.187058  -0.000000
    27  H    0.196576   0.000000
    28  C   -0.183455   0.000000
    29  H    0.176835   0.000000
    30  H    0.174167   0.000000
    31  H    0.171675  -0.000000
    32  N   -0.726500  -0.000000
    33  N   -0.583961  -0.000000
    34  N   -0.726506  -0.000000
    35  N   -0.583962  -0.000000
    36  C   -0.401176  -0.000000
    37  H    0.201982   0.000000
    38  H    0.201992  -0.000000
    39  H    0.225880  -0.000000
    40  C   -0.401175  -0.000000
    41  H    0.201992   0.000000
    42  H    0.201981  -0.000000
    43  H    0.225881  -0.000000
    44  Co  -0.152638   0.000002
 Sum of Mulliken charges =  -0.00000   0.00000

 Dipole moment (field-independent basis, Debye):
    X=              0.0001    Y=             -3.6203    Z=             -0.0002  Tot=              3.6203
 Quadrupole moment (field-independent basis, Debye-Ang):
   XX=           -125.4656   YY=           -134.6857   ZZ=           -172.3679
   XY=              0.0003   XZ=             -0.0006   YZ=              0.0003

 Normal termination of Gaussian 16 at Wed Jul 17 21:28:00 2024.
