 Gaussian 16, Revision C.01,
 Gaussian 16:  ES64L-G16RevC.01  3-Jul-2019

 ----------------------------------------------------------------------
 # pbe1pbe em=gd3bj genecp g09default scf=(xqc,maxcycle=64) force guess
 =read nosymm
 ----------------------------------------------------------------------

 ----------
 Title Card
 ----------
 Symbolic Z-matrix:
 Charge =  0 Multiplicity = 3

                          Input orientation:
 ---------------------------------------------------------------------
 Center     Atomic      Atomic             Coordinates (Angstroms)
 Number     Number       Type             X           Y           Z
 ---------------------------------------------------------------------
      1          6           0       -0.000000    0.805107    0.000092
      2          6           0       -1.286165    1.358334    0.000035
      3          6           0       -1.246626    2.755675   -0.000010
      4          6           0        0.000006    3.401601   -0.000002
      5          6           0        1.246623    2.755673    0.000031
      6          6           0        1.286173    1.358339    0.000067
      7          1           0       -2.155877    3.345859   -0.000046
      8          1           0        0.000002    4.489588   -0.000011
      9          1           0        2.155885    3.345859    0.000036
     10          6           0        3.705251    0.582659   -0.000040
     11          6           0        1.932081   -0.913525    0.000140
     12          6           0        4.204415   -0.741809   -0.000099
     13          6           0        4.566489    1.663029   -0.000071
     14          6           0        5.571095   -0.995596   -0.000200
     15          6           0        5.950138    1.404700   -0.000177
     16          1           0        4.200817    2.682520   -0.000002
     17          6           0        6.438032    0.106502   -0.000246
     18          1           0        5.952832   -2.011940   -0.000232
     19          1           0        6.639808    2.242520   -0.000197
     20          1           0        7.511022   -0.064420   -0.000328
     21          6           0       -3.705243    0.582631   -0.000051
     22          6           0       -1.932078   -0.913526    0.000110
     23          6           0       -4.204394   -0.741801   -0.000080
     24          6           0       -4.566486    1.663043   -0.000065
     25          6           0       -5.571098   -0.995616   -0.000106
     26          6           0       -5.950142    1.404669   -0.000106
     27          1           0       -4.200819    2.682507   -0.000027
     28          6           0       -6.438021    0.106512   -0.000128
     29          1           0       -5.952822   -2.011944   -0.000095
     30          1           0       -6.639808    2.242513   -0.000110
     31          1           0       -7.511021   -0.064434   -0.000153
     32          7           0       -2.315930    0.469564    0.000035
     33          7           0       -3.137009   -1.605708   -0.000040
     34          7           0        2.315931    0.469562    0.000087
     35          7           0        3.137009   -1.605704   -0.000018
     36          6           0        3.220146   -3.031375    0.000013
     37          1           0        3.736240   -3.408413   -0.892583
     38          1           0        3.735729   -3.408447    0.892896
     39          1           0        2.204360   -3.436802   -0.000305
     40          6           0       -3.220136   -3.031382    0.000048
     41          1           0       -3.735652   -3.408426    0.892983
     42          1           0       -3.736301   -3.408448   -0.892495
     43          1           0       -2.204352   -3.436807   -0.000339
     44         27           0        0.000001   -1.268766    0.000132
 ---------------------------------------------------------------------

 SCF Done:  E(UPBE1PBE) =  -1212.11161876     A.U. after   24 cycles

 Alpha  occ. eigenvalues --  -14.45282 -14.45282 -14.45155 -14.45155 -10.28120
 Alpha  occ. eigenvalues --  -10.28120 -10.27513 -10.27513 -10.27248 -10.27248
 Alpha  occ. eigenvalues --  -10.27195 -10.27195 -10.26761 -10.26761 -10.23660
 Alpha  occ. eigenvalues --  -10.23660 -10.23574 -10.23574 -10.23069 -10.23069
 Alpha  occ. eigenvalues --  -10.22971 -10.22971 -10.22499 -10.22486 -10.22399
 Alpha  occ. eigenvalues --  -10.21114  -3.93421  -2.45278  -2.43723  -2.43271
 Alpha  occ. eigenvalues --   -1.05619  -1.05541  -0.97030  -0.96642  -0.88025
 Alpha  occ. eigenvalues --   -0.87619  -0.85623  -0.80418  -0.78828  -0.77607
 Alpha  occ. eigenvalues --   -0.77600  -0.75522  -0.74824  -0.73226  -0.72341
 Alpha  occ. eigenvalues --   -0.66721  -0.65279  -0.64352  -0.64090  -0.62631
 Alpha  occ. eigenvalues --   -0.61311  -0.58930  -0.57597  -0.56568  -0.53944
 Alpha  occ. eigenvalues --   -0.53059  -0.52301  -0.49649  -0.49567  -0.49098
 Alpha  occ. eigenvalues --   -0.48572  -0.48071  -0.47248  -0.46748  -0.45851
 Alpha  occ. eigenvalues --   -0.45673  -0.45337  -0.44817  -0.44790  -0.44080
 Alpha  occ. eigenvalues --   -0.42760  -0.41866  -0.41288  -0.38913  -0.38520
 Alpha  occ. eigenvalues --   -0.38454  -0.37507  -0.37303  -0.37166  -0.36916
 Alpha  occ. eigenvalues --   -0.36331  -0.35070  -0.34557  -0.33951  -0.31973
 Alpha  occ. eigenvalues --   -0.31262  -0.30415  -0.26881  -0.26604  -0.26498
 Alpha  occ. eigenvalues --   -0.26055  -0.26020  -0.24521  -0.24239  -0.22928
 Alpha  occ. eigenvalues --   -0.20924  -0.20721  -0.10091
 Alpha virt. eigenvalues --   -0.06379  -0.03004  -0.00279  -0.00064   0.00345
 Alpha virt. eigenvalues --    0.02228   0.02750   0.03403   0.03788   0.05619
 Alpha virt. eigenvalues --    0.06115   0.07582   0.07590   0.09633   0.10190

  Beta  occ. eigenvalues --  -14.45155 -14.45155 -14.45130 -14.45130 -10.27897
  Beta  occ. eigenvalues --  -10.27897 -10.27515 -10.27515 -10.27257 -10.27257
  Beta  occ. eigenvalues --  -10.27233 -10.27232 -10.26650 -10.26650 -10.23600
  Beta  occ. eigenvalues --  -10.23600 -10.23552 -10.23551 -10.23077 -10.23077
  Beta  occ. eigenvalues --  -10.22937 -10.22937 -10.22586 -10.22582 -10.22299
  Beta  occ. eigenvalues --  -10.21728  -3.85545  -2.36787  -2.36214  -2.33889
  Beta  occ. eigenvalues --   -1.05419  -1.05336  -0.96870  -0.96442  -0.88029
  Beta  occ. eigenvalues --   -0.87548  -0.85741  -0.80363  -0.78811  -0.77553
  Beta  occ. eigenvalues --   -0.77540  -0.75394  -0.74625  -0.73237  -0.72607
  Beta  occ. eigenvalues --   -0.66762  -0.65201  -0.64106  -0.64081  -0.62633
  Beta  occ. eigenvalues --   -0.61214  -0.58927  -0.57708  -0.56568  -0.53926
  Beta  occ. eigenvalues --   -0.53045  -0.52284  -0.49190  -0.49122  -0.49073
  Beta  occ. eigenvalues --   -0.48602  -0.48232  -0.47227  -0.46740  -0.45820
  Beta  occ. eigenvalues --   -0.45677  -0.45308  -0.44826  -0.44446  -0.43773
  Beta  occ. eigenvalues --   -0.42809  -0.41845  -0.41303  -0.38657  -0.38593
  Beta  occ. eigenvalues --   -0.38562  -0.37295  -0.37267  -0.36516  -0.36462
  Beta  occ. eigenvalues --   -0.35692  -0.35152  -0.34021  -0.33307  -0.31646
  Beta  occ. eigenvalues --   -0.29795  -0.27325  -0.26528  -0.25924  -0.24796
  Beta  occ. eigenvalues --   -0.23785  -0.23151  -0.21959  -0.20741  -0.19819
  Beta  occ. eigenvalues --   -0.19596
  Beta virt. eigenvalues --   -0.04430  -0.03923  -0.00761  -0.00286  -0.00118
  Beta virt. eigenvalues --    0.01364   0.01736   0.02415   0.03490   0.05361
  Beta virt. eigenvalues --    0.05619   0.06011   0.07892   0.08658   0.09275

 Mulliken charges and spin densities:
               1          2
     1  C   -0.233421  -0.358976
     2  C    0.391080   0.078806
     3  C   -0.215037  -0.063145
     4  C   -0.179100   0.085453
     5  C   -0.215034  -0.063144
     6  C    0.391081   0.078807
     7  H    0.168646  -0.004219
     8  H    0.164461  -0.004224
     9  H    0.168645  -0.004219
    10  C    0.316704  -0.000798
    11  C    0.372195   0.192503
    12  C    0.295259  -0.022429
    13  C   -0.196861   0.013736
    14  C   -0.216999   0.043746
    15  C   -0.189291   0.024474
    16  H    0.190281  -0.000951
    17  C   -0.182722  -0.009556
    18  H    0.173301  -0.002275
    19  H    0.170711  -0.001461
    20  H    0.169072   0.000146
    21  C    0.316688  -0.000802
    22  C    0.372188   0.192504
    23  C    0.295255  -0.022429
    24  C   -0.196856   0.013741
    25  C   -0.216998   0.043751
    26  C   -0.189287   0.024471
    27  H    0.190282  -0.000951
    28  C   -0.182716  -0.009553
    29  H    0.173302  -0.002275
    30  H    0.170708  -0.001461
    31  H    0.169070   0.000146
    32  N   -0.732999  -0.005623
    33  N   -0.587586   0.036902
    34  N   -0.733005  -0.005623
    35  N   -0.587587   0.036902
    36  C   -0.399777  -0.004469
    37  H    0.201735   0.002038
    38  H    0.201742   0.002041
    39  H    0.217353  -0.000861
    40  C   -0.399776  -0.004469
    41  H    0.201742   0.002042
    42  H    0.201734   0.002037
    43  H    0.217354  -0.000861
    44  Co  -0.045538   1.720525
 Sum of Mulliken charges =  -0.00000   2.00000

 Dipole moment (field-independent basis, Debye):
    X=              0.0002    Y=             -3.3694    Z=             -0.0001  Tot=              3.3694
 Quadrupole moment (field-independent basis, Debye-Ang):
   XX=           -136.0253   YY=           -133.1783   ZZ=           -173.9224
   XY=              0.0003   XZ=             -0.0005   YZ=              0.0000

 Normal termination of Gaussian 16 at Wed Jul 17 21:27:26 2024.
