 Gaussian 16, Revision C.01,
 Gaussian 16:  ES64L-G16RevC.01  3-Jul-2019

 ----------------------------------------------------------------------
 # pbe1pbe em=gd3bj genecp g09default scf=(xqc,maxcycle=64) force guess
 =read nosymm
 ----------------------------------------------------------------------

 ----------
 Title Card
 ----------
 Symbolic Z-matrix:
 Charge =  0 Multiplicity = 1

                          Input orientation:
 ---------------------------------------------------------------------
 Center     Atomic      Atomic             Coordinates (Angstroms)
 Number     Number       Type             X           Y           Z
 ---------------------------------------------------------------------
      1          6           0        0.000006    0.802914    0.000082
      2          6           0       -1.287068    1.356499    0.000040
      3          6           0       -1.247285    2.754060   -0.000008
      4          6           0       -0.000002    3.399310   -0.000004
      5          6           0        1.247298    2.754063    0.000032
      6          6           0        1.287065    1.356496    0.000070
      7          1           0       -2.153823    3.346084   -0.000048
      8          1           0        0.000003    4.485740   -0.000014
      9          1           0        2.153826    3.346081    0.000030
     10          6           0        3.709632    0.583392   -0.000042
     11          6           0        1.935993   -0.913916    0.000141
     12          6           0        4.208480   -0.741796   -0.000100
     13          6           0        4.571470    1.662644   -0.000075
     14          6           0        5.576477   -0.994689   -0.000201
     15          6           0        5.955122    1.404842   -0.000180
     16          1           0        4.208169    2.683131   -0.000006
     17          6           0        6.443620    0.107281   -0.000248
     18          1           0        5.960369   -2.009711   -0.000229
     19          1           0        6.644866    2.242598   -0.000198
     20          1           0        7.516655   -0.062859   -0.000327
     21          6           0       -3.709633    0.583416   -0.000053
     22          6           0       -1.935992   -0.913919    0.000112
     23          6           0       -4.208501   -0.741820   -0.000082
     24          6           0       -4.571469    1.662610   -0.000068
     25          6           0       -5.576456   -0.994678   -0.000109
     26          6           0       -5.955108    1.404861   -0.000109
     27          1           0       -4.208166    2.683133   -0.000029
     28          6           0       -6.443627    0.107243   -0.000130
     29          1           0       -5.960364   -2.009727   -0.000094
     30          1           0       -6.644861    2.242581   -0.000111
     31          1           0       -7.516646   -0.062869   -0.000152
     32          7           0       -2.318470    0.469386    0.000043
     33          7           0       -3.141892   -1.604529   -0.000038
     34          7           0        2.318478    0.469394    0.000093
     35          7           0        3.141908   -1.604525   -0.000014
     36          6           0        3.225884   -3.032058    0.000015
     37          1           0        3.742488   -3.408618   -0.892333
     38          1           0        3.741959   -3.408661    0.892656
     39          1           0        2.210663   -3.437138   -0.000316
     40          6           0       -3.225879   -3.032062    0.000050
     41          1           0       -3.741880   -3.408636    0.892744
     42          1           0       -3.742550   -3.408654   -0.892244
     43          1           0       -2.210654   -3.437144   -0.000353
     44         27           0        0.000001   -1.265670    0.000144
 ---------------------------------------------------------------------

 SCF Done:  E(UPBE1PBE) =  -1212.11186076     A.U. after   13 cycles

 Alpha  occ. eigenvalues --  -14.45849 -14.45849 -14.45352 -14.45352 -10.28502
 Alpha  occ. eigenvalues --  -10.28501 -10.27770 -10.27770 -10.27544 -10.27543
 Alpha  occ. eigenvalues --  -10.27287 -10.27287 -10.25410 -10.25410 -10.24200
 Alpha  occ. eigenvalues --  -10.24199 -10.23983 -10.23983 -10.23498 -10.23498
 Alpha  occ. eigenvalues --  -10.23436 -10.23435 -10.21545 -10.21542 -10.21151
 Alpha  occ. eigenvalues --  -10.19251  -3.83034  -2.34811  -2.34723  -2.30918
 Alpha  occ. eigenvalues --   -1.05775  -1.05714  -0.96946  -0.96620  -0.88173
 Alpha  occ. eigenvalues --   -0.87936  -0.84949  -0.80271  -0.78762  -0.77889
 Alpha  occ. eigenvalues --   -0.77792  -0.75570  -0.74971  -0.72962  -0.71795
 Alpha  occ. eigenvalues --   -0.66505  -0.65185  -0.64565  -0.64082  -0.62556
 Alpha  occ. eigenvalues --   -0.61365  -0.58915  -0.57199  -0.56621  -0.54109
 Alpha  occ. eigenvalues --   -0.53188  -0.52039  -0.49608  -0.49552  -0.49022
 Alpha  occ. eigenvalues --   -0.48249  -0.47890  -0.47539  -0.46596  -0.46103
 Alpha  occ. eigenvalues --   -0.45793  -0.45373  -0.45010  -0.44493  -0.43972
 Alpha  occ. eigenvalues --   -0.42401  -0.41906  -0.41100  -0.38519  -0.38414
 Alpha  occ. eigenvalues --   -0.38370  -0.37483  -0.36857  -0.36747  -0.36695
 Alpha  occ. eigenvalues --   -0.34906  -0.34676  -0.34451  -0.33867  -0.31609
 Alpha  occ. eigenvalues --   -0.29027  -0.26697  -0.25933  -0.24713  -0.24414
 Alpha  occ. eigenvalues --   -0.21560  -0.21328  -0.20483  -0.20110  -0.16407
 Alpha  occ. eigenvalues --   -0.15237  -0.14771
 Alpha virt. eigenvalues --   -0.04485  -0.02502  -0.00771  -0.00135   0.00850
 Alpha virt. eigenvalues --    0.01328   0.01972   0.03207   0.05325   0.05963
 Alpha virt. eigenvalues --    0.06135   0.07279   0.08771   0.09273   0.10063

  Beta  occ. eigenvalues --  -14.45849 -14.45849 -14.45352 -14.45352 -10.28502
  Beta  occ. eigenvalues --  -10.28501 -10.27770 -10.27770 -10.27544 -10.27543
  Beta  occ. eigenvalues --  -10.27287 -10.27287 -10.25410 -10.25410 -10.24200
  Beta  occ. eigenvalues --  -10.24199 -10.23983 -10.23983 -10.23498 -10.23498
  Beta  occ. eigenvalues --  -10.23436 -10.23435 -10.21545 -10.21542 -10.21151
  Beta  occ. eigenvalues --  -10.19251  -3.83034  -2.34810  -2.34723  -2.30917
  Beta  occ. eigenvalues --   -1.05775  -1.05714  -0.96946  -0.96620  -0.88173
  Beta  occ. eigenvalues --   -0.87936  -0.84949  -0.80271  -0.78762  -0.77889
  Beta  occ. eigenvalues --   -0.77792  -0.75570  -0.74971  -0.72962  -0.71795
  Beta  occ. eigenvalues --   -0.66505  -0.65185  -0.64565  -0.64082  -0.62556
  Beta  occ. eigenvalues --   -0.61365  -0.58915  -0.57199  -0.56621  -0.54109
  Beta  occ. eigenvalues --   -0.53188  -0.52039  -0.49608  -0.49552  -0.49022
  Beta  occ. eigenvalues --   -0.48249  -0.47890  -0.47539  -0.46596  -0.46103
  Beta  occ. eigenvalues --   -0.45793  -0.45373  -0.45010  -0.44493  -0.43972
  Beta  occ. eigenvalues --   -0.42401  -0.41906  -0.41100  -0.38519  -0.38414
  Beta  occ. eigenvalues --   -0.38370  -0.37483  -0.36857  -0.36747  -0.36695
  Beta  occ. eigenvalues --   -0.34906  -0.34676  -0.34451  -0.33867  -0.31609
  Beta  occ. eigenvalues --   -0.29027  -0.26697  -0.25933  -0.24713  -0.24414
  Beta  occ. eigenvalues --   -0.21560  -0.21328  -0.20483  -0.20109  -0.16407
  Beta  occ. eigenvalues --   -0.15237  -0.14770
  Beta virt. eigenvalues --   -0.04485  -0.02501  -0.00771  -0.00135   0.00850
  Beta virt. eigenvalues --    0.01328   0.01972   0.03207   0.05325   0.05963
  Beta virt. eigenvalues --    0.06135   0.07279   0.08771   0.09273   0.10063

 Mulliken charges and spin densities:
               1          2
     1  C   -0.169393  -0.000011
     2  C    0.345372   0.000001
     3  C   -0.214102  -0.000001
     4  C   -0.181501   0.000001
     5  C   -0.214106  -0.000001
     6  C    0.345369   0.000001
     7  H    0.156705  -0.000000
     8  H    0.156423  -0.000000
     9  H    0.156706  -0.000000
    10  C    0.316558   0.000000
    11  C    0.412423  -0.000003
    12  C    0.292771   0.000000
    13  C   -0.192449  -0.000000
    14  C   -0.210667  -0.000000
    15  C   -0.186964  -0.000000
    16  H    0.196540   0.000000
    17  C   -0.182990   0.000000
    18  H    0.176732   0.000000
    19  H    0.174118   0.000000
    20  H    0.171765  -0.000000
    21  C    0.316575   0.000000
    22  C    0.412434  -0.000003
    23  C    0.292780   0.000000
    24  C   -0.192454  -0.000000
    25  C   -0.210671  -0.000000
    26  C   -0.186970  -0.000000
    27  H    0.196539   0.000000
    28  C   -0.182999   0.000000
    29  H    0.176729   0.000000
    30  H    0.174121   0.000000
    31  H    0.171769  -0.000000
    32  N   -0.726524  -0.000000
    33  N   -0.585123  -0.000000
    34  N   -0.726519  -0.000000
    35  N   -0.585121  -0.000000
    36  C   -0.400848  -0.000000
    37  H    0.202098  -0.000000
    38  H    0.202109  -0.000000
    39  H    0.226085  -0.000000
    40  C   -0.400849  -0.000000
    41  H    0.202111  -0.000000
    42  H    0.202099  -0.000000
    43  H    0.226083  -0.000000
    44  Co  -0.152765   0.000020
 Sum of Mulliken charges =  -0.00000   0.00000

 Dipole moment (field-independent basis, Debye):
    X=             -0.0002    Y=             -3.6282    Z=             -0.0002  Tot=              3.6282
 Quadrupole moment (field-independent basis, Debye-Ang):
   XX=           -125.2533   YY=           -134.6519   ZZ=           -172.3789
   XY=             -0.0002   XZ=             -0.0006   YZ=              0.0002

 Normal termination of Gaussian 16 at Wed Jul 17 21:29:24 2024.
