 Gaussian 16, Revision C.01,
 Gaussian 16:  ES64L-G16RevC.01  3-Jul-2019

 ----------------------------------------------------------------------
 # pbe1pbe em=gd3bj genecp g09default scf=(xqc,maxcycle=64) force guess
 =read nosymm
 ----------------------------------------------------------------------

 ----------
 Title Card
 ----------
 Symbolic Z-matrix:
 Charge =  0 Multiplicity = 3

                          Input orientation:
 ---------------------------------------------------------------------
 Center     Atomic      Atomic             Coordinates (Angstroms)
 Number     Number       Type             X           Y           Z
 ---------------------------------------------------------------------
      1          6           0        0.000006    0.802914    0.000082
      2          6           0       -1.287068    1.356499    0.000040
      3          6           0       -1.247285    2.754060   -0.000008
      4          6           0       -0.000002    3.399310   -0.000004
      5          6           0        1.247298    2.754063    0.000032
      6          6           0        1.287065    1.356496    0.000070
      7          1           0       -2.153823    3.346084   -0.000048
      8          1           0        0.000003    4.485740   -0.000014
      9          1           0        2.153826    3.346081    0.000030
     10          6           0        3.709632    0.583392   -0.000042
     11          6           0        1.935993   -0.913916    0.000141
     12          6           0        4.208480   -0.741796   -0.000100
     13          6           0        4.571470    1.662644   -0.000075
     14          6           0        5.576477   -0.994689   -0.000201
     15          6           0        5.955122    1.404842   -0.000180
     16          1           0        4.208169    2.683131   -0.000006
     17          6           0        6.443620    0.107281   -0.000248
     18          1           0        5.960369   -2.009711   -0.000229
     19          1           0        6.644866    2.242598   -0.000198
     20          1           0        7.516655   -0.062859   -0.000327
     21          6           0       -3.709633    0.583416   -0.000053
     22          6           0       -1.935992   -0.913919    0.000112
     23          6           0       -4.208501   -0.741820   -0.000082
     24          6           0       -4.571469    1.662610   -0.000068
     25          6           0       -5.576456   -0.994678   -0.000109
     26          6           0       -5.955108    1.404861   -0.000109
     27          1           0       -4.208166    2.683133   -0.000029
     28          6           0       -6.443627    0.107243   -0.000130
     29          1           0       -5.960364   -2.009727   -0.000094
     30          1           0       -6.644861    2.242581   -0.000111
     31          1           0       -7.516646   -0.062869   -0.000152
     32          7           0       -2.318470    0.469386    0.000043
     33          7           0       -3.141892   -1.604529   -0.000038
     34          7           0        2.318478    0.469394    0.000093
     35          7           0        3.141908   -1.604525   -0.000014
     36          6           0        3.225884   -3.032058    0.000015
     37          1           0        3.742488   -3.408618   -0.892333
     38          1           0        3.741959   -3.408661    0.892656
     39          1           0        2.210663   -3.437138   -0.000316
     40          6           0       -3.225879   -3.032062    0.000050
     41          1           0       -3.741880   -3.408636    0.892744
     42          1           0       -3.742550   -3.408654   -0.892244
     43          1           0       -2.210654   -3.437144   -0.000353
     44         27           0        0.000001   -1.265670    0.000144
 ---------------------------------------------------------------------

 SCF Done:  E(UPBE1PBE) =  -1212.11168351     A.U. after   31 cycles

 Alpha  occ. eigenvalues --  -14.45300 -14.45300 -14.45161 -14.45160 -10.28131
 Alpha  occ. eigenvalues --  -10.28131 -10.27531 -10.27531 -10.27256 -10.27256
 Alpha  occ. eigenvalues --  -10.27213 -10.27213 -10.26764 -10.26764 -10.23663
 Alpha  occ. eigenvalues --  -10.23663 -10.23574 -10.23574 -10.23067 -10.23066
 Alpha  occ. eigenvalues --  -10.22959 -10.22959 -10.22469 -10.22457 -10.22364
 Alpha  occ. eigenvalues --  -10.21099  -3.93416  -2.45277  -2.43718  -2.43257
 Alpha  occ. eigenvalues --   -1.05602  -1.05526  -0.97000  -0.96612  -0.88005
 Alpha  occ. eigenvalues --   -0.87611  -0.85592  -0.80396  -0.78817  -0.77594
 Alpha  occ. eigenvalues --   -0.77586  -0.75525  -0.74817  -0.73218  -0.72333
 Alpha  occ. eigenvalues --   -0.66711  -0.65295  -0.64367  -0.64077  -0.62620
 Alpha  occ. eigenvalues --   -0.61292  -0.58922  -0.57588  -0.56558  -0.53942
 Alpha  occ. eigenvalues --   -0.53046  -0.52302  -0.49634  -0.49552  -0.49087
 Alpha  occ. eigenvalues --   -0.48550  -0.48077  -0.47259  -0.46752  -0.45838
 Alpha  occ. eigenvalues --   -0.45671  -0.45327  -0.44799  -0.44766  -0.44061
 Alpha  occ. eigenvalues --   -0.42743  -0.41890  -0.41296  -0.38907  -0.38517
 Alpha  occ. eigenvalues --   -0.38455  -0.37466  -0.37303  -0.37176  -0.36915
 Alpha  occ. eigenvalues --   -0.36314  -0.35066  -0.34563  -0.33964  -0.31964
 Alpha  occ. eigenvalues --   -0.31268  -0.30377  -0.26881  -0.26584  -0.26513
 Alpha  occ. eigenvalues --   -0.26098  -0.26019  -0.24505  -0.24232  -0.22915
 Alpha  occ. eigenvalues --   -0.20926  -0.20710  -0.10083
 Alpha virt. eigenvalues --   -0.06353  -0.03023  -0.00272  -0.00061   0.00346
 Alpha virt. eigenvalues --    0.02226   0.02759   0.03409   0.03800   0.05626
 Alpha virt. eigenvalues --    0.06121   0.07572   0.07589   0.09636   0.10191

  Beta  occ. eigenvalues --  -14.45174 -14.45174 -14.45135 -14.45135 -10.27907
  Beta  occ. eigenvalues --  -10.27907 -10.27533 -10.27533 -10.27265 -10.27265
  Beta  occ. eigenvalues --  -10.27250 -10.27250 -10.26652 -10.26652 -10.23603
  Beta  occ. eigenvalues --  -10.23603 -10.23552 -10.23552 -10.23076 -10.23075
  Beta  occ. eigenvalues --  -10.22924 -10.22924 -10.22558 -10.22554 -10.22263
  Beta  occ. eigenvalues --  -10.21706  -3.85556  -2.36824  -2.36211  -2.33889
  Beta  occ. eigenvalues --   -1.05402  -1.05321  -0.96840  -0.96412  -0.88007
  Beta  occ. eigenvalues --   -0.87540  -0.85709  -0.80340  -0.78799  -0.77538
  Beta  occ. eigenvalues --   -0.77527  -0.75396  -0.74619  -0.73229  -0.72595
  Beta  occ. eigenvalues --   -0.66751  -0.65212  -0.64121  -0.64069  -0.62621
  Beta  occ. eigenvalues --   -0.61196  -0.58918  -0.57697  -0.56557  -0.53924
  Beta  occ. eigenvalues --   -0.53032  -0.52284  -0.49177  -0.49109  -0.49063
  Beta  occ. eigenvalues --   -0.48579  -0.48233  -0.47238  -0.46749  -0.45808
  Beta  occ. eigenvalues --   -0.45674  -0.45297  -0.44806  -0.44421  -0.43753
  Beta  occ. eigenvalues --   -0.42791  -0.41869  -0.41312  -0.38646  -0.38588
  Beta  occ. eigenvalues --   -0.38556  -0.37297  -0.37275  -0.36514  -0.36438
  Beta  occ. eigenvalues --   -0.35664  -0.35147  -0.34025  -0.33324  -0.31638
  Beta  occ. eigenvalues --   -0.29771  -0.27363  -0.26528  -0.25919  -0.24776
  Beta  occ. eigenvalues --   -0.23767  -0.23184  -0.21948  -0.20739  -0.19828
  Beta  occ. eigenvalues --   -0.19579
  Beta virt. eigenvalues --   -0.04424  -0.03909  -0.00776  -0.00298  -0.00111
  Beta virt. eigenvalues --    0.01368   0.01737   0.02416   0.03498   0.05377
  Beta virt. eigenvalues --    0.05642   0.06019   0.07895   0.08650   0.09289

 Mulliken charges and spin densities:
               1          2
     1  C   -0.234213  -0.355917
     2  C    0.391109   0.079335
     3  C   -0.215098  -0.063599
     4  C   -0.178827   0.086229
     5  C   -0.215101  -0.063602
     6  C    0.391108   0.079334
     7  H    0.168521  -0.004117
     8  H    0.164186  -0.004272
     9  H    0.168522  -0.004117
    10  C    0.316651  -0.000612
    11  C    0.372378   0.193213
    12  C    0.295743  -0.022488
    13  C   -0.197186   0.013455
    14  C   -0.217013   0.044131
    15  C   -0.189231   0.024844
    16  H    0.190255  -0.000936
    17  C   -0.182224  -0.009872
    18  H    0.173179  -0.002291
    19  H    0.170645  -0.001480
    20  H    0.169153   0.000161
    21  C    0.316667  -0.000607
    22  C    0.372390   0.193199
    23  C    0.295752  -0.022487
    24  C   -0.197190   0.013447
    25  C   -0.217015   0.044120
    26  C   -0.189236   0.024847
    27  H    0.190255  -0.000936
    28  C   -0.182233  -0.009875
    29  H    0.173177  -0.002291
    30  H    0.170649  -0.001480
    31  H    0.169158   0.000161
    32  N   -0.732998  -0.005698
    33  N   -0.588680   0.036375
    34  N   -0.732993  -0.005698
    35  N   -0.588677   0.036374
    36  C   -0.399441  -0.004413
    37  H    0.201865   0.001986
    38  H    0.201873   0.001989
    39  H    0.217521  -0.000853
    40  C   -0.399442  -0.004413
    41  H    0.201874   0.001990
    42  H    0.201866   0.001986
    43  H    0.217520  -0.000853
    44  Co  -0.045218   1.715729
 Sum of Mulliken charges =  -0.00000   2.00000

 Dipole moment (field-independent basis, Debye):
    X=             -0.0005    Y=             -3.3825    Z=             -0.0000  Tot=              3.3825
 Quadrupole moment (field-independent basis, Debye-Ang):
   XX=           -135.8615   YY=           -133.1337   ZZ=           -173.9292
   XY=             -0.0002   XZ=             -0.0005   YZ=             -0.0003

 Normal termination of Gaussian 16 at Wed Jul 17 21:28:57 2024.
