 Gaussian 16, Revision C.01,
 Gaussian 16:  ES64L-G16RevC.01  3-Jul-2019

 ----------------------------------------------------------------------
 # pbe1pbe em=gd3bj genecp g09default scf=(xqc,maxcycle=64) force guess
 =read nosymm
 ----------------------------------------------------------------------

 ----------
 Title Card
 ----------
 Symbolic Z-matrix:
 Charge =  0 Multiplicity = 1

                          Input orientation:
 ---------------------------------------------------------------------
 Center     Atomic      Atomic             Coordinates (Angstroms)
 Number     Number       Type             X           Y           Z
 ---------------------------------------------------------------------
      1          6           0        0.000000    0.798323    0.000085
      2          6           0       -1.287284    1.354433    0.000043
      3          6           0       -1.247270    2.750955   -0.000005
      4          6           0        0.000004    3.394741   -0.000004
      5          6           0        1.247270    2.750954    0.000033
      6          6           0        1.287294    1.354436    0.000072
      7          1           0       -2.152518    3.345384   -0.000050
      8          1           0        0.000002    4.481261   -0.000018
      9          1           0        2.152524    3.345384    0.000025
     10          6           0        3.712299    0.583907   -0.000043
     11          6           0        1.938078   -0.913556    0.000141
     12          6           0        4.211818   -0.740872   -0.000100
     13          6           0        4.575157    1.662822   -0.000079
     14          6           0        5.579951   -0.994004   -0.000202
     15          6           0        5.959004    1.405138   -0.000183
     16          1           0        4.214191    2.684012   -0.000009
     17          6           0        6.447375    0.107913   -0.000249
     18          1           0        5.966159   -2.007987   -0.000226
     19          1           0        6.648622    2.242678   -0.000198
     20          1           0        7.520626   -0.061619   -0.000326
     21          6           0       -3.712291    0.583882   -0.000054
     22          6           0       -1.938076   -0.913557    0.000113
     23          6           0       -4.211796   -0.740867   -0.000084
     24          6           0       -4.575154    1.662833   -0.000072
     25          6           0       -5.579958   -0.994026   -0.000112
     26          6           0       -5.959006    1.405110   -0.000112
     27          1           0       -4.214192    2.684001   -0.000030
     28          6           0       -6.447364    0.107919   -0.000132
     29          1           0       -5.966149   -2.007992   -0.000093
     30          1           0       -6.648619    2.242669   -0.000112
     31          1           0       -7.520625   -0.061632   -0.000151
     32          7           0       -2.320926    0.469734    0.000051
     33          7           0       -3.144976   -1.605002   -0.000036
     34          7           0        2.320925    0.469735    0.000098
     35          7           0        3.144975   -1.604998   -0.000009
     36          6           0        3.230632   -3.031204    0.000017
     37          1           0        3.747959   -3.407565   -0.892191
     38          1           0        3.747414   -3.407616    0.892524
     39          1           0        2.216074   -3.438353   -0.000327
     40          6           0       -3.230621   -3.031210    0.000051
     41          1           0       -3.747334   -3.407589    0.892614
     42          1           0       -3.748023   -3.407601   -0.892100
     43          1           0       -2.216066   -3.438360   -0.000365
     44         27           0       -0.000000   -1.258533    0.000143
 ---------------------------------------------------------------------

 SCF Done:  E(UPBE1PBE) =  -1212.11281604     A.U. after   16 cycles

 Alpha  occ. eigenvalues --  -14.45851 -14.45851 -14.45355 -14.45355 -10.28521
 Alpha  occ. eigenvalues --  -10.28520 -10.27792 -10.27792 -10.27560 -10.27560
 Alpha  occ. eigenvalues --  -10.27278 -10.27277 -10.25400 -10.25399 -10.24206
 Alpha  occ. eigenvalues --  -10.24206 -10.23990 -10.23990 -10.23496 -10.23496
 Alpha  occ. eigenvalues --  -10.23432 -10.23431 -10.21514 -10.21511 -10.21111
 Alpha  occ. eigenvalues --  -10.19251  -3.83038  -2.34821  -2.34718  -2.30927
 Alpha  occ. eigenvalues --   -1.05745  -1.05684  -0.96940  -0.96615  -0.88175
 Alpha  occ. eigenvalues --   -0.87937  -0.84950  -0.80277  -0.78764  -0.77882
 Alpha  occ. eigenvalues --   -0.77788  -0.75567  -0.74960  -0.72956  -0.71783
 Alpha  occ. eigenvalues --   -0.66502  -0.65175  -0.64555  -0.64082  -0.62549
 Alpha  occ. eigenvalues --   -0.61359  -0.58912  -0.57202  -0.56619  -0.54100
 Alpha  occ. eigenvalues --   -0.53180  -0.52041  -0.49597  -0.49541  -0.49013
 Alpha  occ. eigenvalues --   -0.48248  -0.47889  -0.47546  -0.46600  -0.46105
 Alpha  occ. eigenvalues --   -0.45803  -0.45380  -0.45028  -0.44484  -0.43963
 Alpha  occ. eigenvalues --   -0.42393  -0.41884  -0.41082  -0.38514  -0.38411
 Alpha  occ. eigenvalues --   -0.38363  -0.37477  -0.36858  -0.36734  -0.36691
 Alpha  occ. eigenvalues --   -0.34907  -0.34688  -0.34436  -0.33840  -0.31601
 Alpha  occ. eigenvalues --   -0.29018  -0.26701  -0.25934  -0.24716  -0.24417
 Alpha  occ. eigenvalues --   -0.21689  -0.21330  -0.20508  -0.20133  -0.16376
 Alpha  occ. eigenvalues --   -0.15237  -0.14779
 Alpha virt. eigenvalues --   -0.04502  -0.02472  -0.00777  -0.00129   0.00835
 Alpha virt. eigenvalues --    0.01337   0.01967   0.03198   0.05347   0.05972
 Alpha virt. eigenvalues --    0.06171   0.07278   0.08760   0.09276   0.10057

  Beta  occ. eigenvalues --  -14.45851 -14.45851 -14.45355 -14.45355 -10.28521
  Beta  occ. eigenvalues --  -10.28520 -10.27792 -10.27792 -10.27560 -10.27560
  Beta  occ. eigenvalues --  -10.27278 -10.27277 -10.25400 -10.25399 -10.24206
  Beta  occ. eigenvalues --  -10.24206 -10.23990 -10.23990 -10.23496 -10.23496
  Beta  occ. eigenvalues --  -10.23432 -10.23431 -10.21514 -10.21511 -10.21111
  Beta  occ. eigenvalues --  -10.19251  -3.83038  -2.34821  -2.34718  -2.30927
  Beta  occ. eigenvalues --   -1.05745  -1.05684  -0.96940  -0.96615  -0.88175
  Beta  occ. eigenvalues --   -0.87937  -0.84950  -0.80277  -0.78764  -0.77882
  Beta  occ. eigenvalues --   -0.77788  -0.75567  -0.74960  -0.72956  -0.71783
  Beta  occ. eigenvalues --   -0.66502  -0.65175  -0.64555  -0.64082  -0.62549
  Beta  occ. eigenvalues --   -0.61359  -0.58912  -0.57202  -0.56619  -0.54100
  Beta  occ. eigenvalues --   -0.53180  -0.52041  -0.49597  -0.49541  -0.49013
  Beta  occ. eigenvalues --   -0.48248  -0.47889  -0.47546  -0.46600  -0.46105
  Beta  occ. eigenvalues --   -0.45803  -0.45380  -0.45028  -0.44484  -0.43963
  Beta  occ. eigenvalues --   -0.42393  -0.41884  -0.41082  -0.38514  -0.38411
  Beta  occ. eigenvalues --   -0.38363  -0.37477  -0.36858  -0.36734  -0.36691
  Beta  occ. eigenvalues --   -0.34907  -0.34688  -0.34436  -0.33840  -0.31601
  Beta  occ. eigenvalues --   -0.29018  -0.26701  -0.25934  -0.24716  -0.24417
  Beta  occ. eigenvalues --   -0.21689  -0.21330  -0.20508  -0.20133  -0.16376
  Beta  occ. eigenvalues --   -0.15237  -0.14779
  Beta virt. eigenvalues --   -0.04502  -0.02472  -0.00777  -0.00129   0.00835
  Beta virt. eigenvalues --    0.01337   0.01967   0.03198   0.05347   0.05972
  Beta virt. eigenvalues --    0.06171   0.07278   0.08760   0.09276   0.10057

 Mulliken charges and spin densities:
               1          2
     1  C   -0.170782   0.000000
     2  C    0.345330  -0.000000
     3  C   -0.213609   0.000000
     4  C   -0.181963  -0.000000
     5  C   -0.213607   0.000000
     6  C    0.345332  -0.000000
     7  H    0.156753   0.000000
     8  H    0.156000  -0.000000
     9  H    0.156752   0.000000
    10  C    0.317268  -0.000000
    11  C    0.411765   0.000000
    12  C    0.292473  -0.000000
    13  C   -0.192861   0.000000
    14  C   -0.210765   0.000000
    15  C   -0.186509   0.000000
    16  H    0.196435  -0.000000
    17  C   -0.182942  -0.000000
    18  H    0.176848  -0.000000
    19  H    0.174125  -0.000000
    20  H    0.171763   0.000000
    21  C    0.317259  -0.000000
    22  C    0.411758   0.000000
    23  C    0.292463  -0.000000
    24  C   -0.192857   0.000000
    25  C   -0.210760   0.000000
    26  C   -0.186506   0.000000
    27  H    0.196436  -0.000000
    28  C   -0.182937  -0.000000
    29  H    0.176850  -0.000000
    30  H    0.174123  -0.000000
    31  H    0.171761   0.000000
    32  N   -0.726494   0.000000
    33  N   -0.585502   0.000000
    34  N   -0.726498   0.000000
    35  N   -0.585506   0.000000
    36  C   -0.401067   0.000000
    37  H    0.201947   0.000000
    38  H    0.201958  -0.000000
    39  H    0.225969   0.000000
    40  C   -0.401067   0.000000
    41  H    0.201958   0.000000
    42  H    0.201946  -0.000000
    43  H    0.225970   0.000000
    44  Co  -0.149009  -0.000000
 Sum of Mulliken charges =  -0.00000   0.00000

 Dipole moment (field-independent basis, Debye):
    X=              0.0001    Y=             -3.6208    Z=             -0.0002  Tot=              3.6208
 Quadrupole moment (field-independent basis, Debye-Ang):
   XX=           -125.1156   YY=           -134.6902   ZZ=           -172.3826
   XY=              0.0002   XZ=             -0.0006   YZ=              0.0002

 Normal termination of Gaussian 16 at Wed Jul 17 21:30:37 2024.
