 Gaussian 16, Revision C.01,
 Gaussian 16:  ES64L-G16RevC.01  3-Jul-2019

 ----------------------------------------------------------------------
 # pbe1pbe em=gd3bj genecp g09default scf=(xqc,maxcycle=64) force guess
 =read nosymm
 ----------------------------------------------------------------------

 ----------
 Title Card
 ----------
 Symbolic Z-matrix:
 Charge =  0 Multiplicity = 3

                          Input orientation:
 ---------------------------------------------------------------------
 Center     Atomic      Atomic             Coordinates (Angstroms)
 Number     Number       Type             X           Y           Z
 ---------------------------------------------------------------------
      1          6           0        0.000000    0.798323    0.000085
      2          6           0       -1.287284    1.354433    0.000043
      3          6           0       -1.247270    2.750955   -0.000005
      4          6           0        0.000004    3.394741   -0.000004
      5          6           0        1.247270    2.750954    0.000033
      6          6           0        1.287294    1.354436    0.000072
      7          1           0       -2.152518    3.345384   -0.000050
      8          1           0        0.000002    4.481261   -0.000018
      9          1           0        2.152524    3.345384    0.000025
     10          6           0        3.712299    0.583907   -0.000043
     11          6           0        1.938078   -0.913556    0.000141
     12          6           0        4.211818   -0.740872   -0.000100
     13          6           0        4.575157    1.662822   -0.000079
     14          6           0        5.579951   -0.994004   -0.000202
     15          6           0        5.959004    1.405138   -0.000183
     16          1           0        4.214191    2.684012   -0.000009
     17          6           0        6.447375    0.107913   -0.000249
     18          1           0        5.966159   -2.007987   -0.000226
     19          1           0        6.648622    2.242678   -0.000198
     20          1           0        7.520626   -0.061619   -0.000326
     21          6           0       -3.712291    0.583882   -0.000054
     22          6           0       -1.938076   -0.913557    0.000113
     23          6           0       -4.211796   -0.740867   -0.000084
     24          6           0       -4.575154    1.662833   -0.000072
     25          6           0       -5.579958   -0.994026   -0.000112
     26          6           0       -5.959006    1.405110   -0.000112
     27          1           0       -4.214192    2.684001   -0.000030
     28          6           0       -6.447364    0.107919   -0.000132
     29          1           0       -5.966149   -2.007992   -0.000093
     30          1           0       -6.648619    2.242669   -0.000112
     31          1           0       -7.520625   -0.061632   -0.000151
     32          7           0       -2.320926    0.469734    0.000051
     33          7           0       -3.144976   -1.605002   -0.000036
     34          7           0        2.320925    0.469735    0.000098
     35          7           0        3.144975   -1.604998   -0.000009
     36          6           0        3.230632   -3.031204    0.000017
     37          1           0        3.747959   -3.407565   -0.892191
     38          1           0        3.747414   -3.407616    0.892524
     39          1           0        2.216074   -3.438353   -0.000327
     40          6           0       -3.230621   -3.031210    0.000051
     41          1           0       -3.747334   -3.407589    0.892614
     42          1           0       -3.748023   -3.407601   -0.892100
     43          1           0       -2.216066   -3.438360   -0.000365
     44         27           0       -0.000000   -1.258533    0.000143
 ---------------------------------------------------------------------

 SCF Done:  E(UPBE1PBE) =  -1212.11241391     A.U. after   21 cycles

 Alpha  occ. eigenvalues --  -14.45300 -14.45300 -14.45161 -14.45160 -10.28150
 Alpha  occ. eigenvalues --  -10.28150 -10.27552 -10.27552 -10.27246 -10.27246
 Alpha  occ. eigenvalues --  -10.27230 -10.27230 -10.26748 -10.26747 -10.23671
 Alpha  occ. eigenvalues --  -10.23671 -10.23583 -10.23583 -10.23067 -10.23067
 Alpha  occ. eigenvalues --  -10.22956 -10.22956 -10.22430 -10.22418 -10.22327
 Alpha  occ. eigenvalues --  -10.21067  -3.93431  -2.45323  -2.43722  -2.43240
 Alpha  occ. eigenvalues --   -1.05572  -1.05495  -0.96990  -0.96603  -0.88007
 Alpha  occ. eigenvalues --   -0.87613  -0.85591  -0.80399  -0.78820  -0.77586
 Alpha  occ. eigenvalues --   -0.77580  -0.75524  -0.74807  -0.73207  -0.72321
 Alpha  occ. eigenvalues --   -0.66704  -0.65286  -0.64358  -0.64078  -0.62610
 Alpha  occ. eigenvalues --   -0.61285  -0.58916  -0.57587  -0.56562  -0.53932
 Alpha  occ. eigenvalues --   -0.53036  -0.52303  -0.49621  -0.49540  -0.49079
 Alpha  occ. eigenvalues --   -0.48547  -0.48080  -0.47267  -0.46761  -0.45840
 Alpha  occ. eigenvalues --   -0.45675  -0.45331  -0.44817  -0.44756  -0.44050
 Alpha  occ. eigenvalues --   -0.42738  -0.41869  -0.41273  -0.38900  -0.38513
 Alpha  occ. eigenvalues --   -0.38439  -0.37458  -0.37296  -0.37166  -0.36915
 Alpha  occ. eigenvalues --   -0.36321  -0.35076  -0.34552  -0.33937  -0.31954
 Alpha  occ. eigenvalues --   -0.31309  -0.30342  -0.26888  -0.26602  -0.26578
 Alpha  occ. eigenvalues --   -0.26187  -0.26014  -0.24508  -0.24221  -0.22917
 Alpha  occ. eigenvalues --   -0.20925  -0.20686  -0.10100
 Alpha virt. eigenvalues --   -0.06316  -0.03030  -0.00267  -0.00045   0.00333
 Alpha virt. eigenvalues --    0.02222   0.02745   0.03449   0.03822   0.05636
 Alpha virt. eigenvalues --    0.06121   0.07569   0.07605   0.09630   0.10186

  Beta  occ. eigenvalues --  -14.45174 -14.45174 -14.45136 -14.45136 -10.27922
  Beta  occ. eigenvalues --  -10.27922 -10.27554 -10.27554 -10.27267 -10.27267
  Beta  occ. eigenvalues --  -10.27255 -10.27255 -10.26634 -10.26633 -10.23612
  Beta  occ. eigenvalues --  -10.23611 -10.23561 -10.23561 -10.23076 -10.23076
  Beta  occ. eigenvalues --  -10.22921 -10.22921 -10.22519 -10.22515 -10.22223
  Beta  occ. eigenvalues --  -10.21658  -3.85633  -2.36935  -2.36286  -2.33934
  Beta  occ. eigenvalues --   -1.05370  -1.05289  -0.96827  -0.96403  -0.88006
  Beta  occ. eigenvalues --   -0.87543  -0.85700  -0.80341  -0.78800  -0.77531
  Beta  occ. eigenvalues --   -0.77519  -0.75394  -0.74606  -0.73216  -0.72572
  Beta  occ. eigenvalues --   -0.66743  -0.65195  -0.64109  -0.64068  -0.62608
  Beta  occ. eigenvalues --   -0.61188  -0.58910  -0.57688  -0.56558  -0.53913
  Beta  occ. eigenvalues --   -0.53021  -0.52283  -0.49163  -0.49096  -0.49056
  Beta  occ. eigenvalues --   -0.48573  -0.48226  -0.47245  -0.46755  -0.45809
  Beta  occ. eigenvalues --   -0.45677  -0.45300  -0.44823  -0.44408  -0.43741
  Beta  occ. eigenvalues --   -0.42783  -0.41847  -0.41287  -0.38633  -0.38565
  Beta  occ. eigenvalues --   -0.38549  -0.37290  -0.37267  -0.36513  -0.36439
  Beta  occ. eigenvalues --   -0.35665  -0.35154  -0.34014  -0.33296  -0.31622
  Beta  occ. eigenvalues --   -0.29746  -0.27472  -0.26531  -0.25913  -0.24782
  Beta  occ. eigenvalues --   -0.23768  -0.23276  -0.21950  -0.20728  -0.19848
  Beta  occ. eigenvalues --   -0.19592
  Beta virt. eigenvalues --   -0.04437  -0.03913  -0.00770  -0.00351  -0.00111
  Beta virt. eigenvalues --    0.01366   0.01722   0.02407   0.03491   0.05393
  Beta virt. eigenvalues --    0.05680   0.06027   0.07890   0.08641   0.09288

 Mulliken charges and spin densities:
               1          2
     1  C   -0.236923  -0.346778
     2  C    0.391074   0.080145
     3  C   -0.214650  -0.064073
     4  C   -0.179191   0.087768
     5  C   -0.214647  -0.064073
     6  C    0.391076   0.080147
     7  H    0.168431  -0.003899
     8  H    0.163773  -0.004369
     9  H    0.168430  -0.003899
    10  C    0.317339  -0.000579
    11  C    0.371975   0.194925
    12  C    0.295440  -0.022402
    13  C   -0.197550   0.013322
    14  C   -0.217077   0.043883
    15  C   -0.188768   0.024669
    16  H    0.190206  -0.000925
    17  C   -0.182172  -0.009836
    18  H    0.173311  -0.002276
    19  H    0.170669  -0.001469
    20  H    0.169162   0.000162
    21  C    0.317330  -0.000582
    22  C    0.371969   0.194919
    23  C    0.295429  -0.022402
    24  C   -0.197546   0.013326
    25  C   -0.217073   0.043888
    26  C   -0.188765   0.024666
    27  H    0.190206  -0.000926
    28  C   -0.182167  -0.009834
    29  H    0.173313  -0.002277
    30  H    0.170667  -0.001469
    31  H    0.169160   0.000162
    32  N   -0.732882  -0.005944
    33  N   -0.589067   0.036392
    34  N   -0.732886  -0.005945
    35  N   -0.589071   0.036394
    36  C   -0.399581  -0.004432
    37  H    0.201689   0.002020
    38  H    0.201696   0.002023
    39  H    0.217317  -0.000829
    40  C   -0.399581  -0.004431
    41  H    0.201696   0.002023
    42  H    0.201688   0.002019
    43  H    0.217318  -0.000829
    44  Co  -0.040768   1.701629
 Sum of Mulliken charges =  -0.00000   2.00000

 Dipole moment (field-independent basis, Debye):
    X=              0.0002    Y=             -3.3813    Z=             -0.0000  Tot=              3.3813
 Quadrupole moment (field-independent basis, Debye-Ang):
   XX=           -135.6980   YY=           -133.1625   ZZ=           -173.9266
   XY=              0.0003   XZ=             -0.0005   YZ=             -0.0003

 Normal termination of Gaussian 16 at Wed Jul 17 21:30:02 2024.
