 Gaussian 16, Revision C.01,
 Gaussian 16:  ES64L-G16RevC.01  3-Jul-2019

 ----------------------------------------------------------------------
 # pbe1pbe em=gd3bj genecp g09default scf=(xqc,maxcycle=64) force guess
 =read nosymm
 ----------------------------------------------------------------------

 ----------
 Title Card
 ----------
 Symbolic Z-matrix:
 Charge =  0 Multiplicity = 1

                          Input orientation:
 ---------------------------------------------------------------------
 Center     Atomic      Atomic             Coordinates (Angstroms)
 Number     Number       Type             X           Y           Z
 ---------------------------------------------------------------------
      1          6           0        0.000004    0.797592    0.000098
      2          6           0       -1.288799    1.352632    0.000042
      3          6           0       -1.247661    2.748555   -0.000005
      4          6           0        0.000000    3.390836   -0.000003
      5          6           0        1.247668    2.748558    0.000031
      6          6           0        1.288798    1.352630    0.000069
      7          1           0       -2.152181    3.344264   -0.000051
      8          1           0        0.000003    4.476991   -0.000022
      9          1           0        2.152184    3.344263    0.000022
     10          6           0        3.715179    0.584588   -0.000043
     11          6           0        1.940583   -0.913805    0.000143
     12          6           0        4.214755   -0.740607   -0.000098
     13          6           0        4.578601    1.663526   -0.000082
     14          6           0        5.583257   -0.993059   -0.000202
     15          6           0        5.962505    1.405784   -0.000185
     16          1           0        4.218819    2.684984   -0.000012
     17          6           0        6.450456    0.108409   -0.000250
     18          1           0        5.970447   -2.007245   -0.000223
     19          1           0        6.652424    2.243371   -0.000199
     20          1           0        7.523904   -0.060918   -0.000325
     21          6           0       -3.715185    0.584613   -0.000054
     22          6           0       -1.940582   -0.913807    0.000116
     23          6           0       -4.214778   -0.740630   -0.000084
     24          6           0       -4.578598    1.663492   -0.000074
     25          6           0       -5.583235   -0.993048   -0.000114
     26          6           0       -5.962491    1.405800   -0.000115
     27          1           0       -4.218816    2.684987   -0.000031
     28          6           0       -6.450462    0.108372   -0.000134
     29          1           0       -5.970443   -2.007263   -0.000092
     30          1           0       -6.652418    2.243355   -0.000112
     31          1           0       -7.523895   -0.060928   -0.000151
     32          7           0       -2.323102    0.470094    0.000057
     33          7           0       -3.147892   -1.604758   -0.000033
     34          7           0        2.323114    0.470101    0.000102
     35          7           0        3.147909   -1.604754   -0.000006
     36          6           0        3.235184   -3.030952    0.000017
     37          1           0        3.752825   -3.406695   -0.892193
     38          1           0        3.752264   -3.406754    0.892535
     39          1           0        2.221133   -3.439791   -0.000337
     40          6           0       -3.235178   -3.030956    0.000052
     41          1           0       -3.752182   -3.406725    0.892626
     42          1           0       -3.752889   -3.406731   -0.892101
     43          1           0       -2.221123   -3.439797   -0.000376
     44         27           0       -0.000000   -1.254499    0.000135
 ---------------------------------------------------------------------

 SCF Done:  E(UPBE1PBE) =  -1212.11244195     A.U. after   17 cycles

 Alpha  occ. eigenvalues --  -14.45867 -14.45866 -14.45359 -14.45359 -10.28535
 Alpha  occ. eigenvalues --  -10.28535 -10.27816 -10.27816 -10.27575 -10.27575
 Alpha  occ. eigenvalues --  -10.27281 -10.27281 -10.25393 -10.25392 -10.24216
 Alpha  occ. eigenvalues --  -10.24216 -10.24000 -10.23999 -10.23500 -10.23499
 Alpha  occ. eigenvalues --  -10.23437 -10.23437 -10.21488 -10.21485 -10.21072
 Alpha  occ. eigenvalues --  -10.19255  -3.83024  -2.34810  -2.34697  -2.30917
 Alpha  occ. eigenvalues --   -1.05734  -1.05674  -0.96944  -0.96621  -0.88175
 Alpha  occ. eigenvalues --   -0.87940  -0.84944  -0.80281  -0.78763  -0.77882
 Alpha  occ. eigenvalues --   -0.77787  -0.75569  -0.74962  -0.72960  -0.71762
 Alpha  occ. eigenvalues --   -0.66503  -0.65182  -0.64559  -0.64082  -0.62546
 Alpha  occ. eigenvalues --   -0.61354  -0.58902  -0.57201  -0.56616  -0.54105
 Alpha  occ. eigenvalues --   -0.53177  -0.52041  -0.49598  -0.49542  -0.49004
 Alpha  occ. eigenvalues --   -0.48266  -0.47892  -0.47554  -0.46596  -0.46105
 Alpha  occ. eigenvalues --   -0.45799  -0.45380  -0.45025  -0.44482  -0.43961
 Alpha  occ. eigenvalues --   -0.42388  -0.41880  -0.41071  -0.38516  -0.38409
 Alpha  occ. eigenvalues --   -0.38365  -0.37473  -0.36868  -0.36725  -0.36666
 Alpha  occ. eigenvalues --   -0.34888  -0.34687  -0.34440  -0.33845  -0.31596
 Alpha  occ. eigenvalues --   -0.29007  -0.26710  -0.25934  -0.24716  -0.24419
 Alpha  occ. eigenvalues --   -0.21698  -0.21323  -0.20508  -0.20133  -0.16346
 Alpha  occ. eigenvalues --   -0.15222  -0.14770
 Alpha virt. eigenvalues --   -0.04509  -0.02450  -0.00786  -0.00130   0.00828
 Alpha virt. eigenvalues --    0.01343   0.01957   0.03194   0.05367   0.05975
 Alpha virt. eigenvalues --    0.06188   0.07281   0.08762   0.09277   0.10046

  Beta  occ. eigenvalues --  -14.45867 -14.45866 -14.45359 -14.45359 -10.28535
  Beta  occ. eigenvalues --  -10.28535 -10.27816 -10.27816 -10.27575 -10.27575
  Beta  occ. eigenvalues --  -10.27281 -10.27281 -10.25393 -10.25392 -10.24216
  Beta  occ. eigenvalues --  -10.24216 -10.24000 -10.23999 -10.23500 -10.23499
  Beta  occ. eigenvalues --  -10.23437 -10.23437 -10.21488 -10.21485 -10.21072
  Beta  occ. eigenvalues --  -10.19255  -3.83024  -2.34810  -2.34697  -2.30917
  Beta  occ. eigenvalues --   -1.05734  -1.05674  -0.96944  -0.96621  -0.88175
  Beta  occ. eigenvalues --   -0.87940  -0.84944  -0.80281  -0.78763  -0.77882
  Beta  occ. eigenvalues --   -0.77787  -0.75569  -0.74962  -0.72960  -0.71762
  Beta  occ. eigenvalues --   -0.66503  -0.65182  -0.64559  -0.64082  -0.62546
  Beta  occ. eigenvalues --   -0.61354  -0.58902  -0.57201  -0.56616  -0.54105
  Beta  occ. eigenvalues --   -0.53177  -0.52041  -0.49598  -0.49542  -0.49004
  Beta  occ. eigenvalues --   -0.48266  -0.47892  -0.47554  -0.46596  -0.46105
  Beta  occ. eigenvalues --   -0.45799  -0.45380  -0.45025  -0.44482  -0.43961
  Beta  occ. eigenvalues --   -0.42388  -0.41880  -0.41071  -0.38516  -0.38409
  Beta  occ. eigenvalues --   -0.38365  -0.37473  -0.36868  -0.36725  -0.36666
  Beta  occ. eigenvalues --   -0.34888  -0.34687  -0.34440  -0.33845  -0.31596
  Beta  occ. eigenvalues --   -0.29007  -0.26710  -0.25934  -0.24716  -0.24419
  Beta  occ. eigenvalues --   -0.21698  -0.21323  -0.20508  -0.20133  -0.16346
  Beta  occ. eigenvalues --   -0.15222  -0.14770
  Beta virt. eigenvalues --   -0.04509  -0.02450  -0.00786  -0.00130   0.00828
  Beta virt. eigenvalues --    0.01343   0.01957   0.03194   0.05367   0.05975
  Beta virt. eigenvalues --    0.06188   0.07281   0.08762   0.09277   0.10046

 Mulliken charges and spin densities:
               1          2
     1  C   -0.171788  -0.000001
     2  C    0.346338   0.000000
     3  C   -0.213842  -0.000000
     4  C   -0.181735   0.000000
     5  C   -0.213843  -0.000000
     6  C    0.346334   0.000000
     7  H    0.156581  -0.000000
     8  H    0.155614  -0.000000
     9  H    0.156582  -0.000000
    10  C    0.317061   0.000000
    11  C    0.411505  -0.000000
    12  C    0.292518   0.000000
    13  C   -0.192858  -0.000000
    14  C   -0.210675  -0.000000
    15  C   -0.186445  -0.000000
    16  H    0.196459   0.000000
    17  C   -0.182840   0.000000
    18  H    0.176868   0.000000
    19  H    0.174185   0.000000
    20  H    0.171777  -0.000000
    21  C    0.317076   0.000000
    22  C    0.411516  -0.000000
    23  C    0.292530   0.000000
    24  C   -0.192864  -0.000000
    25  C   -0.210680  -0.000000
    26  C   -0.186451  -0.000000
    27  H    0.196459   0.000000
    28  C   -0.182848   0.000000
    29  H    0.176866   0.000000
    30  H    0.174188   0.000000
    31  H    0.171780  -0.000000
    32  N   -0.726446  -0.000000
    33  N   -0.585812  -0.000000
    34  N   -0.726441  -0.000000
    35  N   -0.585808  -0.000000
    36  C   -0.401171  -0.000000
    37  H    0.201991   0.000000
    38  H    0.202002  -0.000000
    39  H    0.226002  -0.000000
    40  C   -0.401171  -0.000000
    41  H    0.202003   0.000000
    42  H    0.201991  -0.000000
    43  H    0.226000  -0.000000
    44  Co  -0.148506   0.000003
 Sum of Mulliken charges =  -0.00000   0.00000

 Dipole moment (field-independent basis, Debye):
    X=             -0.0002    Y=             -3.6290    Z=             -0.0002  Tot=              3.6290
 Quadrupole moment (field-independent basis, Debye-Ang):
   XX=           -124.9588   YY=           -134.7198   ZZ=           -172.3882
   XY=             -0.0003   XZ=             -0.0006   YZ=              0.0003

 Normal termination of Gaussian 16 at Wed Jul 17 21:31:42 2024.
