 Gaussian 16, Revision C.01,
 Gaussian 16:  ES64L-G16RevC.01  3-Jul-2019

 ----------------------------------------------------------------------
 # pbe1pbe em=gd3bj genecp g09default scf=(xqc,maxcycle=64) force guess
 =read nosymm
 ----------------------------------------------------------------------

 ----------
 Title Card
 ----------
 Symbolic Z-matrix:
 Charge =  0 Multiplicity = 3

                          Input orientation:
 ---------------------------------------------------------------------
 Center     Atomic      Atomic             Coordinates (Angstroms)
 Number     Number       Type             X           Y           Z
 ---------------------------------------------------------------------
      1          6           0        0.000004    0.797592    0.000098
      2          6           0       -1.288799    1.352632    0.000042
      3          6           0       -1.247661    2.748555   -0.000005
      4          6           0        0.000000    3.390836   -0.000003
      5          6           0        1.247668    2.748558    0.000031
      6          6           0        1.288798    1.352630    0.000069
      7          1           0       -2.152181    3.344264   -0.000051
      8          1           0        0.000003    4.476991   -0.000022
      9          1           0        2.152184    3.344263    0.000022
     10          6           0        3.715179    0.584588   -0.000043
     11          6           0        1.940583   -0.913805    0.000143
     12          6           0        4.214755   -0.740607   -0.000098
     13          6           0        4.578601    1.663526   -0.000082
     14          6           0        5.583257   -0.993059   -0.000202
     15          6           0        5.962505    1.405784   -0.000185
     16          1           0        4.218819    2.684984   -0.000012
     17          6           0        6.450456    0.108409   -0.000250
     18          1           0        5.970447   -2.007245   -0.000223
     19          1           0        6.652424    2.243371   -0.000199
     20          1           0        7.523904   -0.060918   -0.000325
     21          6           0       -3.715185    0.584613   -0.000054
     22          6           0       -1.940582   -0.913807    0.000116
     23          6           0       -4.214778   -0.740630   -0.000084
     24          6           0       -4.578598    1.663492   -0.000074
     25          6           0       -5.583235   -0.993048   -0.000114
     26          6           0       -5.962491    1.405800   -0.000115
     27          1           0       -4.218816    2.684987   -0.000031
     28          6           0       -6.450462    0.108372   -0.000134
     29          1           0       -5.970443   -2.007263   -0.000092
     30          1           0       -6.652418    2.243355   -0.000112
     31          1           0       -7.523895   -0.060928   -0.000151
     32          7           0       -2.323102    0.470094    0.000057
     33          7           0       -3.147892   -1.604758   -0.000033
     34          7           0        2.323114    0.470101    0.000102
     35          7           0        3.147909   -1.604754   -0.000006
     36          6           0        3.235184   -3.030952    0.000017
     37          1           0        3.752825   -3.406695   -0.892193
     38          1           0        3.752264   -3.406754    0.892535
     39          1           0        2.221133   -3.439791   -0.000337
     40          6           0       -3.235178   -3.030956    0.000052
     41          1           0       -3.752182   -3.406725    0.892626
     42          1           0       -3.752889   -3.406731   -0.892101
     43          1           0       -2.221123   -3.439797   -0.000376
     44         27           0       -0.000000   -1.254499    0.000135
 ---------------------------------------------------------------------

 SCF Done:  E(UPBE1PBE) =  -1212.11214580     A.U. after   13 cycles

 Alpha  occ. eigenvalues --  -14.45312 -14.45312 -14.45164 -14.45163 -10.28160
 Alpha  occ. eigenvalues --  -10.28160 -10.27575 -10.27575 -10.27247 -10.27247
 Alpha  occ. eigenvalues --  -10.27244 -10.27244 -10.26743 -10.26742 -10.23682
 Alpha  occ. eigenvalues --  -10.23682 -10.23593 -10.23593 -10.23070 -10.23070
 Alpha  occ. eigenvalues --  -10.22963 -10.22962 -10.22404 -10.22392 -10.22295
 Alpha  occ. eigenvalues --  -10.21060  -3.93415  -2.45319  -2.43703  -2.43215
 Alpha  occ. eigenvalues --   -1.05560  -1.05483  -0.96993  -0.96608  -0.88005
 Alpha  occ. eigenvalues --   -0.87615  -0.85587  -0.80402  -0.78818  -0.77586
 Alpha  occ. eigenvalues --   -0.77578  -0.75526  -0.74808  -0.73211  -0.72303
 Alpha  occ. eigenvalues --   -0.66703  -0.65292  -0.64360  -0.64077  -0.62608
 Alpha  occ. eigenvalues --   -0.61279  -0.58906  -0.57580  -0.56562  -0.53937
 Alpha  occ. eigenvalues --   -0.53032  -0.52303  -0.49620  -0.49539  -0.49068
 Alpha  occ. eigenvalues --   -0.48564  -0.48079  -0.47274  -0.46762  -0.45840
 Alpha  occ. eigenvalues --   -0.45673  -0.45326  -0.44813  -0.44754  -0.44048
 Alpha  occ. eigenvalues --   -0.42730  -0.41863  -0.41263  -0.38901  -0.38509
 Alpha  occ. eigenvalues --   -0.38427  -0.37431  -0.37298  -0.37159  -0.36924
 Alpha  occ. eigenvalues --   -0.36313  -0.35076  -0.34554  -0.33940  -0.31952
 Alpha  occ. eigenvalues --   -0.31304  -0.30303  -0.26890  -0.26603  -0.26567
 Alpha  occ. eigenvalues --   -0.26217  -0.26011  -0.24510  -0.24200  -0.22915
 Alpha  occ. eigenvalues --   -0.20920  -0.20662  -0.10103
 Alpha virt. eigenvalues --   -0.06284  -0.03041  -0.00264  -0.00039   0.00329
 Alpha virt. eigenvalues --    0.02210   0.02738   0.03464   0.03841   0.05641
 Alpha virt. eigenvalues --    0.06125   0.07574   0.07612   0.09623   0.10176

  Beta  occ. eigenvalues --  -14.45186 -14.45186 -14.45139 -14.45139 -10.27931
  Beta  occ. eigenvalues --  -10.27930 -10.27577 -10.27577 -10.27282 -10.27281
  Beta  occ. eigenvalues --  -10.27256 -10.27256 -10.26628 -10.26627 -10.23622
  Beta  occ. eigenvalues --  -10.23622 -10.23572 -10.23572 -10.23079 -10.23079
  Beta  occ. eigenvalues --  -10.22928 -10.22927 -10.22493 -10.22490 -10.22190
  Beta  occ. eigenvalues --  -10.21647  -3.85630  -2.36945  -2.36276  -2.33924
  Beta  occ. eigenvalues --   -1.05358  -1.05277  -0.96830  -0.96407  -0.88002
  Beta  occ. eigenvalues --   -0.87545  -0.85695  -0.80343  -0.78797  -0.77528
  Beta  occ. eigenvalues --   -0.77519  -0.75395  -0.74606  -0.73220  -0.72552
  Beta  occ. eigenvalues --   -0.66741  -0.65202  -0.64111  -0.64066  -0.62605
  Beta  occ. eigenvalues --   -0.61181  -0.58900  -0.57680  -0.56558  -0.53918
  Beta  occ. eigenvalues --   -0.53016  -0.52283  -0.49162  -0.49095  -0.49045
  Beta  occ. eigenvalues --   -0.48589  -0.48223  -0.47252  -0.46759  -0.45809
  Beta  occ. eigenvalues --   -0.45675  -0.45295  -0.44820  -0.44404  -0.43738
  Beta  occ. eigenvalues --   -0.42773  -0.41840  -0.41277  -0.38632  -0.38546
  Beta  occ. eigenvalues --   -0.38544  -0.37292  -0.37263  -0.36523  -0.36430
  Beta  occ. eigenvalues --   -0.35641  -0.35153  -0.34015  -0.33299  -0.31619
  Beta  occ. eigenvalues --   -0.29721  -0.27479  -0.26539  -0.25909  -0.24772
  Beta  occ. eigenvalues --   -0.23770  -0.23296  -0.21946  -0.20716  -0.19843
  Beta  occ. eigenvalues --   -0.19568
  Beta virt. eigenvalues --   -0.04436  -0.03893  -0.00774  -0.00362  -0.00110
  Beta virt. eigenvalues --    0.01369   0.01723   0.02397   0.03490   0.05409
  Beta virt. eigenvalues --    0.05709   0.06032   0.07891   0.08643   0.09289

 Mulliken charges and spin densities:
               1          2
     1  C   -0.238629  -0.345101
     2  C    0.392213   0.080774
     3  C   -0.214948  -0.064438
     4  C   -0.178901   0.088510
     5  C   -0.214950  -0.064439
     6  C    0.392210   0.080774
     7  H    0.168261  -0.003879
     8  H    0.163429  -0.004421
     9  H    0.168262  -0.003878
    10  C    0.317101  -0.000411
    11  C    0.371778   0.195990
    12  C    0.295492  -0.022395
    13  C   -0.197513   0.013085
    14  C   -0.216983   0.043879
    15  C   -0.188728   0.024840
    16  H    0.190242  -0.000913
    17  C   -0.182046  -0.010014
    18  H    0.173336  -0.002275
    19  H    0.170726  -0.001478
    20  H    0.169181   0.000172
    21  C    0.317117  -0.000407
    22  C    0.371791   0.195974
    23  C    0.295504  -0.022393
    24  C   -0.197517   0.013078
    25  C   -0.216987   0.043868
    26  C   -0.188735   0.024842
    27  H    0.190243  -0.000912
    28  C   -0.182054  -0.010016
    29  H    0.173335  -0.002274
    30  H    0.170730  -0.001478
    31  H    0.169186   0.000172
    32  N   -0.732822  -0.006185
    33  N   -0.589368   0.036222
    34  N   -0.732816  -0.006185
    35  N   -0.589364   0.036222
    36  C   -0.399654  -0.004424
    37  H    0.201709   0.002021
    38  H    0.201716   0.002021
    39  H    0.217334  -0.000817
    40  C   -0.399655  -0.004424
    41  H    0.201717   0.002022
    42  H    0.201710   0.002021
    43  H    0.217333  -0.000817
    44  Co  -0.039985   1.697486
 Sum of Mulliken charges =  -0.00000   2.00000

 Dipole moment (field-independent basis, Debye):
    X=             -0.0005    Y=             -3.3875    Z=              0.0006  Tot=              3.3875
 Quadrupole moment (field-independent basis, Debye-Ang):
   XX=           -135.5454   YY=           -133.1854   ZZ=           -173.9281
   XY=             -0.0003   XZ=             -0.0005   YZ=             -0.0026

 Normal termination of Gaussian 16 at Wed Jul 17 21:31:04 2024.
