 Gaussian 16, Revision C.01,
 Gaussian 16:  ES64L-G16RevC.01  3-Jul-2019

 ----------------------------------------------------------------------
 # pbe1pbe em=gd3bj genecp g09default scf=(xqc,maxcycle=64) force guess
 =read nosymm
 ----------------------------------------------------------------------

 ----------
 Title Card
 ----------
 Symbolic Z-matrix:
 Charge =  0 Multiplicity = 1

                          Input orientation:
 ---------------------------------------------------------------------
 Center     Atomic      Atomic             Coordinates (Angstroms)
 Number     Number       Type             X           Y           Z
 ---------------------------------------------------------------------
      1          6           0        0.000001    0.612785    0.000062
      2          6           0       -1.179177    1.358741    0.000047
      3          6           0       -1.226305    2.753023    0.000000
      4          6           0       -0.000000    3.428899    0.000012
      5          6           0        1.226308    2.753023    0.000052
      6          6           0        1.179179    1.358743    0.000089
      7          1           0       -2.151932    3.326182   -0.000047
      8          1           0        0.000001    4.508132   -0.000010
      9          1           0        2.151935    3.326183    0.000050
     10          6           0        3.648977    0.570116   -0.000017
     11          6           0        1.884280   -0.890857    0.000098
     12          6           0        4.164865   -0.736866   -0.000110
     13          6           0        4.522756    1.665032   -0.000048
     14          6           0        5.529828   -1.001269   -0.000209
     15          6           0        5.887428    1.401513   -0.000168
     16          1           0        4.158626    2.684481    0.000015
     17          6           0        6.388719    0.091437   -0.000239
     18          1           0        5.907311   -2.018050   -0.000252
     19          1           0        6.587571    2.233832   -0.000197
     20          1           0        7.462147   -0.071494   -0.000321
     21          6           0       -3.648974    0.570112   -0.000024
     22          6           0       -1.884277   -0.890857    0.000024
     23          6           0       -4.164858   -0.736873   -0.000067
     24          6           0       -4.522754    1.665028   -0.000047
     25          6           0       -5.529821   -1.001276   -0.000107
     26          6           0       -5.887425    1.401504   -0.000096
     27          1           0       -4.158626    2.684476   -0.000020
     28          6           0       -6.388716    0.091427   -0.000119
     29          1           0       -5.907304   -2.018058   -0.000112
     30          1           0       -6.587570    2.233822   -0.000110
     31          1           0       -7.462142   -0.071505   -0.000149
     32          7           0       -2.268147    0.424386    0.000005
     33          7           0       -3.058654   -1.582375   -0.000039
     34          7           0        2.268152    0.424384    0.000095
     35          7           0        3.058660   -1.582374   -0.000060
     36          6           0        3.169732   -3.023606   -0.000000
     37          1           0        3.703760   -3.372892   -0.891492
     38          1           0        3.703346   -3.372888    0.891751
     39          1           0        2.163300   -3.440256   -0.000236
     40          6           0       -3.169723   -3.023611    0.000039
     41          1           0       -3.703274   -3.372882    0.891829
     42          1           0       -3.703810   -3.372908   -0.891414
     43          1           0       -2.163290   -3.440258   -0.000263
     44         27           0        0.000006   -1.132027    0.000148
 ---------------------------------------------------------------------

 SCF Done:  E(UPBE1PBE) =  -1212.15041182     A.U. after   16 cycles

 Alpha  occ. eigenvalues --  -14.45321 -14.45321 -14.44503 -14.44502 -10.27292
 Alpha  occ. eigenvalues --  -10.27292 -10.27123 -10.27123 -10.27119 -10.27119
 Alpha  occ. eigenvalues --  -10.27028 -10.27027 -10.24772 -10.24772 -10.24142
 Alpha  occ. eigenvalues --  -10.24142 -10.23958 -10.23958 -10.23442 -10.23442
 Alpha  occ. eigenvalues --  -10.23379 -10.23379 -10.21623 -10.21621 -10.21085
 Alpha  occ. eigenvalues --  -10.18144  -3.83394  -2.35640  -2.34797  -2.31351
 Alpha  occ. eigenvalues --   -1.06180  -1.06100  -0.95754  -0.95304  -0.88094
 Alpha  occ. eigenvalues --   -0.87868  -0.85117  -0.79429  -0.78506  -0.77816
 Alpha  occ. eigenvalues --   -0.77733  -0.75734  -0.75056  -0.72505  -0.72422
 Alpha  occ. eigenvalues --   -0.66228  -0.64861  -0.64325  -0.63308  -0.62793
 Alpha  occ. eigenvalues --   -0.61088  -0.58761  -0.57531  -0.55986  -0.53889
 Alpha  occ. eigenvalues --   -0.53043  -0.51602  -0.49454  -0.49389  -0.49181
 Alpha  occ. eigenvalues --   -0.47636  -0.47580  -0.46701  -0.46655  -0.45927
 Alpha  occ. eigenvalues --   -0.45797  -0.44935  -0.44364  -0.44206  -0.43708
 Alpha  occ. eigenvalues --   -0.41994  -0.41762  -0.41361  -0.38646  -0.38600
 Alpha  occ. eigenvalues --   -0.38281  -0.37636  -0.37324  -0.36544  -0.36305
 Alpha  occ. eigenvalues --   -0.35737  -0.34575  -0.34147  -0.33221  -0.31344
 Alpha  occ. eigenvalues --   -0.28646  -0.27851  -0.26339  -0.26330  -0.24921
 Alpha  occ. eigenvalues --   -0.24546  -0.21986  -0.21567  -0.20622  -0.15895
 Alpha  occ. eigenvalues --   -0.15712  -0.15111
 Alpha virt. eigenvalues --   -0.03817  -0.02017  -0.00339   0.00366   0.01086
 Alpha virt. eigenvalues --    0.01534   0.02062   0.03696   0.05520   0.06017
 Alpha virt. eigenvalues --    0.06941   0.07847   0.09194   0.09487   0.10116

  Beta  occ. eigenvalues --  -14.45321 -14.45321 -14.44503 -14.44502 -10.27292
  Beta  occ. eigenvalues --  -10.27292 -10.27123 -10.27123 -10.27119 -10.27119
  Beta  occ. eigenvalues --  -10.27028 -10.27027 -10.24772 -10.24772 -10.24142
  Beta  occ. eigenvalues --  -10.24142 -10.23958 -10.23958 -10.23442 -10.23442
  Beta  occ. eigenvalues --  -10.23379 -10.23379 -10.21623 -10.21621 -10.21085
  Beta  occ. eigenvalues --  -10.18144  -3.83394  -2.35640  -2.34797  -2.31351
  Beta  occ. eigenvalues --   -1.06180  -1.06100  -0.95754  -0.95304  -0.88094
  Beta  occ. eigenvalues --   -0.87868  -0.85117  -0.79429  -0.78506  -0.77816
  Beta  occ. eigenvalues --   -0.77733  -0.75734  -0.75056  -0.72505  -0.72422
  Beta  occ. eigenvalues --   -0.66228  -0.64861  -0.64325  -0.63308  -0.62793
  Beta  occ. eigenvalues --   -0.61088  -0.58761  -0.57531  -0.55986  -0.53889
  Beta  occ. eigenvalues --   -0.53043  -0.51602  -0.49454  -0.49389  -0.49181
  Beta  occ. eigenvalues --   -0.47636  -0.47580  -0.46701  -0.46655  -0.45927
  Beta  occ. eigenvalues --   -0.45797  -0.44935  -0.44364  -0.44206  -0.43708
  Beta  occ. eigenvalues --   -0.41994  -0.41762  -0.41361  -0.38646  -0.38600
  Beta  occ. eigenvalues --   -0.38281  -0.37636  -0.37324  -0.36544  -0.36305
  Beta  occ. eigenvalues --   -0.35737  -0.34575  -0.34147  -0.33221  -0.31344
  Beta  occ. eigenvalues --   -0.28646  -0.27851  -0.26339  -0.26330  -0.24921
  Beta  occ. eigenvalues --   -0.24546  -0.21986  -0.21567  -0.20622  -0.15895
  Beta  occ. eigenvalues --   -0.15712  -0.15111
  Beta virt. eigenvalues --   -0.03817  -0.02017  -0.00339   0.00366   0.01086
  Beta virt. eigenvalues --    0.01534   0.02062   0.03696   0.05520   0.06017
  Beta virt. eigenvalues --    0.06941   0.07847   0.09194   0.09487   0.10116

 Mulliken charges and spin densities:
               1          2
     1  C   -0.223402  -0.000000
     2  C    0.264393   0.000000
     3  C   -0.181947  -0.000000
     4  C   -0.213899   0.000000
     5  C   -0.181948  -0.000000
     6  C    0.264394   0.000000
     7  H    0.167371   0.000000
     8  H    0.157941  -0.000000
     9  H    0.167371   0.000000
    10  C    0.305868   0.000000
    11  C    0.411948  -0.000000
    12  C    0.278090   0.000000
    13  C   -0.181800  -0.000000
    14  C   -0.200758  -0.000000
    15  C   -0.187563   0.000000
    16  H    0.193881   0.000000
    17  C   -0.188569  -0.000000
    18  H    0.176746   0.000000
    19  H    0.172794   0.000000
    20  H    0.171798   0.000000
    21  C    0.305864   0.000000
    22  C    0.411950  -0.000000
    23  C    0.278093   0.000000
    24  C   -0.181799  -0.000000
    25  C   -0.200759  -0.000000
    26  C   -0.187564   0.000000
    27  H    0.193881   0.000000
    28  C   -0.188568  -0.000000
    29  H    0.176746   0.000000
    30  H    0.172794   0.000000
    31  H    0.171799   0.000000
    32  N   -0.698505  -0.000000
    33  N   -0.609332  -0.000000
    34  N   -0.698507  -0.000000
    35  N   -0.609332  -0.000000
    36  C   -0.397363  -0.000000
    37  H    0.201609  -0.000000
    38  H    0.201617  -0.000000
    39  H    0.222075  -0.000000
    40  C   -0.397363  -0.000000
    41  H    0.201618  -0.000000
    42  H    0.201608  -0.000000
    43  H    0.222075  -0.000000
    44  Co   0.034656   0.000000
 Sum of Mulliken charges =  -0.00000   0.00000

 Dipole moment (field-independent basis, Debye):
    X=             -0.0000    Y=             -3.4711    Z=             -0.0001  Tot=              3.4711
 Quadrupole moment (field-independent basis, Debye-Ang):
   XX=           -126.6659   YY=           -133.8588   ZZ=           -172.0948
   XY=              0.0001   XZ=             -0.0004   YZ=             -0.0003

 Normal termination of Gaussian 16 at Wed Jul 17 20:40:02 2024.
