 Gaussian 16, Revision C.01,
 Gaussian 16:  ES64L-G16RevC.01  3-Jul-2019

 ----------------------------------------------------------------------
 # pbe1pbe em=gd3bj genecp g09default scf=(xqc,maxcycle=64) force guess
 =read nosymm
 ----------------------------------------------------------------------

 ----------
 Title Card
 ----------
 Symbolic Z-matrix:
 Charge =  0 Multiplicity = 3

                          Input orientation:
 ---------------------------------------------------------------------
 Center     Atomic      Atomic             Coordinates (Angstroms)
 Number     Number       Type             X           Y           Z
 ---------------------------------------------------------------------
      1          6           0        0.000001    0.612785    0.000062
      2          6           0       -1.179177    1.358741    0.000047
      3          6           0       -1.226305    2.753023    0.000000
      4          6           0       -0.000000    3.428899    0.000012
      5          6           0        1.226308    2.753023    0.000052
      6          6           0        1.179179    1.358743    0.000089
      7          1           0       -2.151932    3.326182   -0.000047
      8          1           0        0.000001    4.508132   -0.000010
      9          1           0        2.151935    3.326183    0.000050
     10          6           0        3.648977    0.570116   -0.000017
     11          6           0        1.884280   -0.890857    0.000098
     12          6           0        4.164865   -0.736866   -0.000110
     13          6           0        4.522756    1.665032   -0.000048
     14          6           0        5.529828   -1.001269   -0.000209
     15          6           0        5.887428    1.401513   -0.000168
     16          1           0        4.158626    2.684481    0.000015
     17          6           0        6.388719    0.091437   -0.000239
     18          1           0        5.907311   -2.018050   -0.000252
     19          1           0        6.587571    2.233832   -0.000197
     20          1           0        7.462147   -0.071494   -0.000321
     21          6           0       -3.648974    0.570112   -0.000024
     22          6           0       -1.884277   -0.890857    0.000024
     23          6           0       -4.164858   -0.736873   -0.000067
     24          6           0       -4.522754    1.665028   -0.000047
     25          6           0       -5.529821   -1.001276   -0.000107
     26          6           0       -5.887425    1.401504   -0.000096
     27          1           0       -4.158626    2.684476   -0.000020
     28          6           0       -6.388716    0.091427   -0.000119
     29          1           0       -5.907304   -2.018058   -0.000112
     30          1           0       -6.587570    2.233822   -0.000110
     31          1           0       -7.462142   -0.071505   -0.000149
     32          7           0       -2.268147    0.424386    0.000005
     33          7           0       -3.058654   -1.582375   -0.000039
     34          7           0        2.268152    0.424384    0.000095
     35          7           0        3.058660   -1.582374   -0.000060
     36          6           0        3.169732   -3.023606   -0.000000
     37          1           0        3.703760   -3.372892   -0.891492
     38          1           0        3.703346   -3.372888    0.891751
     39          1           0        2.163300   -3.440256   -0.000236
     40          6           0       -3.169723   -3.023611    0.000039
     41          1           0       -3.703274   -3.372882    0.891829
     42          1           0       -3.703810   -3.372908   -0.891414
     43          1           0       -2.163290   -3.440258   -0.000263
     44         27           0        0.000006   -1.132027    0.000148
 ---------------------------------------------------------------------

 SCF Done:  E(UPBE1PBE) =  -1212.12780033     A.U. after   30 cycles

 Alpha  occ. eigenvalues --  -14.44922 -14.44922 -14.44435 -14.44434 -10.27169
 Alpha  occ. eigenvalues --  -10.27168 -10.27129 -10.27129 -10.27004 -10.27003
 Alpha  occ. eigenvalues --  -10.26880 -10.26879 -10.26385 -10.26385 -10.23646
 Alpha  occ. eigenvalues --  -10.23646 -10.23562 -10.23562 -10.23031 -10.23031
 Alpha  occ. eigenvalues --  -10.22942 -10.22942 -10.22634 -10.22492 -10.22485
 Alpha  occ. eigenvalues --  -10.19456  -3.93636  -2.46903  -2.43442  -2.42417
 Alpha  occ. eigenvalues --   -1.06142  -1.06043  -0.95949  -0.95395  -0.87982
 Alpha  occ. eigenvalues --   -0.87581  -0.85927  -0.79664  -0.78870  -0.77589
 Alpha  occ. eigenvalues --   -0.77464  -0.75784  -0.75082  -0.73065  -0.72831
 Alpha  occ. eigenvalues --   -0.66468  -0.65022  -0.64198  -0.63445  -0.62967
 Alpha  occ. eigenvalues --   -0.61130  -0.58789  -0.58148  -0.56002  -0.53781
 Alpha  occ. eigenvalues --   -0.53002  -0.51896  -0.49677  -0.49582  -0.49487
 Alpha  occ. eigenvalues --   -0.47831  -0.47373  -0.46936  -0.46625  -0.45761
 Alpha  occ. eigenvalues --   -0.45746  -0.44737  -0.44737  -0.44576  -0.43855
 Alpha  occ. eigenvalues --   -0.42062  -0.42038  -0.41800  -0.39524  -0.38980
 Alpha  occ. eigenvalues --   -0.38711  -0.38063  -0.37693  -0.37247  -0.36640
 Alpha  occ. eigenvalues --   -0.36012  -0.34869  -0.34647  -0.33446  -0.32472
 Alpha  occ. eigenvalues --   -0.32282  -0.31718  -0.29868  -0.27451  -0.26930
 Alpha  occ. eigenvalues --   -0.26468  -0.26024  -0.24626  -0.23484  -0.22953
 Alpha  occ. eigenvalues --   -0.21028  -0.20993  -0.09499
 Alpha virt. eigenvalues --   -0.05312  -0.01752  -0.00034   0.00285   0.00383
 Alpha virt. eigenvalues --    0.02294   0.03080   0.03755   0.04830   0.05720
 Alpha virt. eigenvalues --    0.06735   0.07923   0.08034   0.09787   0.10207

  Beta  occ. eigenvalues --  -14.44788 -14.44788 -14.44405 -14.44404 -10.27177
  Beta  occ. eigenvalues --  -10.27177 -10.27139 -10.27138 -10.26912 -10.26912
  Beta  occ. eigenvalues --  -10.26818 -10.26817 -10.26188 -10.26188 -10.23593
  Beta  occ. eigenvalues --  -10.23593 -10.23530 -10.23530 -10.23027 -10.23027
  Beta  occ. eigenvalues --  -10.22918 -10.22918 -10.22621 -10.22615 -10.22391
  Beta  occ. eigenvalues --  -10.19699  -3.87440  -2.39449  -2.38426  -2.34921
  Beta  occ. eigenvalues --   -1.05938  -1.05840  -0.95725  -0.95168  -0.87904
  Beta  occ. eigenvalues --   -0.87506  -0.85821  -0.79540  -0.78781  -0.77521
  Beta  occ. eigenvalues --   -0.77383  -0.75636  -0.74891  -0.73036  -0.72827
  Beta  occ. eigenvalues --   -0.66470  -0.64720  -0.63993  -0.63435  -0.62866
  Beta  occ. eigenvalues --   -0.61033  -0.58729  -0.58021  -0.55951  -0.53714
  Beta  occ. eigenvalues --   -0.52957  -0.51799  -0.49696  -0.49116  -0.49046
  Beta  occ. eigenvalues --   -0.47689  -0.47337  -0.46881  -0.46590  -0.45724
  Beta  occ. eigenvalues --   -0.45716  -0.44713  -0.44673  -0.44140  -0.43553
  Beta  occ. eigenvalues --   -0.42032  -0.42024  -0.41787  -0.39516  -0.38674
  Beta  occ. eigenvalues --   -0.38371  -0.37783  -0.37230  -0.36797  -0.36181
  Beta  occ. eigenvalues --   -0.35988  -0.34597  -0.34299  -0.32807  -0.32239
  Beta  occ. eigenvalues --   -0.31253  -0.29377  -0.26232  -0.26202  -0.25253
  Beta  occ. eigenvalues --   -0.24977  -0.24010  -0.22202  -0.21429  -0.20636
  Beta  occ. eigenvalues --   -0.20015
  Beta virt. eigenvalues --   -0.04702  -0.03940  -0.01743  -0.00166   0.00239
  Beta virt. eigenvalues --    0.01298   0.01831   0.02451   0.03792   0.05858
  Beta virt. eigenvalues --    0.06082   0.06298   0.08316   0.08993   0.09331

 Mulliken charges and spin densities:
               1          2
     1  C   -0.328249  -0.143998
     2  C    0.311732   0.129688
     3  C   -0.183399  -0.090246
     4  C   -0.206963   0.166584
     5  C   -0.183400  -0.090245
     6  C    0.311733   0.129686
     7  H    0.176950   0.002212
     8  H    0.167258  -0.008893
     9  H    0.176950   0.002212
    10  C    0.306915  -0.005705
    11  C    0.380667   0.164356
    12  C    0.281502  -0.019040
    13  C   -0.187192   0.021690
    14  C   -0.206884   0.037840
    15  C   -0.189179   0.017069
    16  H    0.187872  -0.001305
    17  C   -0.188371  -0.000556
    18  H    0.173424  -0.002036
    19  H    0.169609  -0.001117
    20  H    0.169282  -0.000279
    21  C    0.306911  -0.005704
    22  C    0.380670   0.164358
    23  C    0.281505  -0.019040
    24  C   -0.187190   0.021689
    25  C   -0.206885   0.037841
    26  C   -0.189180   0.017070
    27  H    0.187873  -0.001305
    28  C   -0.188370  -0.000557
    29  H    0.173424  -0.002036
    30  H    0.169609  -0.001117
    31  H    0.169283  -0.000279
    32  N   -0.704885  -0.003084
    33  N   -0.614858   0.040981
    34  N   -0.704886  -0.003083
    35  N   -0.614859   0.040981
    36  C   -0.395787  -0.004423
    37  H    0.202258   0.002064
    38  H    0.202264   0.002067
    39  H    0.213392  -0.000410
    40  C   -0.395787  -0.004423
    41  H    0.202265   0.002067
    42  H    0.202258   0.002064
    43  H    0.213392  -0.000410
    44  Co   0.157325   1.406769
 Sum of Mulliken charges =  -0.00000   2.00000

 Dipole moment (field-independent basis, Debye):
    X=             -0.0000    Y=             -3.1538    Z=             -0.0000  Tot=              3.1538
 Quadrupole moment (field-independent basis, Debye-Ang):
   XX=           -136.3129   YY=           -131.8248   ZZ=           -173.9487
   XY=              0.0001   XZ=             -0.0004   YZ=             -0.0004

 Normal termination of Gaussian 16 at Wed Jul 17 20:39:30 2024.
