 Gaussian 16, Revision C.01,
 Gaussian 16:  ES64L-G16RevC.01  3-Jul-2019

 ----------------------------------------------------------------------
 # pbe1pbe em=gd3bj genecp g09default scf=(xqc,maxcycle=64) force guess
 =read nosymm
 ----------------------------------------------------------------------

 ----------
 Title Card
 ----------
 Symbolic Z-matrix:
 Charge =  0 Multiplicity = 1

                          Input orientation:
 ---------------------------------------------------------------------
 Center     Atomic      Atomic             Coordinates (Angstroms)
 Number     Number       Type             X           Y           Z
 ---------------------------------------------------------------------
      1          6           0       -0.000002    0.798643    0.000184
      2          6           0       -1.289369    1.352015    0.000023
      3          6           0       -1.247987    2.747713   -0.000012
      4          6           0        0.000006    3.389566   -0.000001
      5          6           0        1.247981    2.747710    0.000023
      6          6           0        1.289385    1.352020    0.000050
      7          1           0       -2.152144    3.343057   -0.000049
      8          1           0        0.000002    4.475401   -0.000025
      9          1           0        2.152151    3.343059    0.000022
     10          6           0        3.716841    0.584913   -0.000046
     11          6           0        1.941746   -0.913966    0.000111
     12          6           0        4.216300   -0.740204   -0.000093
     13          6           0        4.580198    1.663868   -0.000083
     14          6           0        5.584885   -0.993264   -0.000201
     15          6           0        5.964286    1.406405   -0.000186
     16          1           0        4.220602    2.685663   -0.000014
     17          6           0        6.452151    0.109021   -0.000252
     18          1           0        5.972018   -2.006981   -0.000222
     19          1           0        6.654337    2.243883   -0.000199
     20          1           0        7.525190   -0.060819   -0.000326
     21          6           0       -3.716822    0.584848   -0.000057
     22          6           0       -1.941743   -0.913966    0.000084
     23          6           0       -4.216246   -0.740177   -0.000079
     24          6           0       -4.580194    1.663915   -0.000075
     25          6           0       -5.584912   -0.993313   -0.000114
     26          6           0       -5.964302    1.406343   -0.000116
     27          1           0       -4.220605    2.685641   -0.000032
     28          6           0       -6.452127    0.109062   -0.000137
     29          1           0       -5.972004   -2.006978   -0.000091
     30          1           0       -6.654336    2.243881   -0.000113
     31          1           0       -7.525194   -0.060834   -0.000151
     32          7           0       -2.324497    0.469838    0.000063
     33          7           0       -3.149837   -1.604884   -0.000015
     34          7           0        2.324486    0.469835    0.000107
     35          7           0        3.149825   -1.604882    0.000014
     36          6           0        3.237392   -3.030932    0.000020
     37          1           0        3.755389   -3.406165   -0.892311
     38          1           0        3.754817   -3.406227    0.892655
     39          1           0        2.223847   -3.440641   -0.000345
     40          6           0       -3.237378   -3.030939    0.000055
     41          1           0       -3.754734   -3.406197    0.892748
     42          1           0       -3.755455   -3.406201   -0.892219
     43          1           0       -2.223841   -3.440647   -0.000385
     44         27           0        0.000000   -1.254006    0.000129
 ---------------------------------------------------------------------

 SCF Done:  E(UPBE1PBE) =  -1212.11195173     A.U. after   12 cycles

 Alpha  occ. eigenvalues --  -14.45863 -14.45863 -14.45365 -14.45365 -10.28546
 Alpha  occ. eigenvalues --  -10.28546 -10.27826 -10.27825 -10.27581 -10.27581
 Alpha  occ. eigenvalues --  -10.27278 -10.27278 -10.25399 -10.25398 -10.24220
 Alpha  occ. eigenvalues --  -10.24220 -10.24010 -10.24010 -10.23505 -10.23504
 Alpha  occ. eigenvalues --  -10.23443 -10.23442 -10.21483 -10.21480 -10.21066
 Alpha  occ. eigenvalues --  -10.19258  -3.83017  -2.34804  -2.34689  -2.30910
 Alpha  occ. eigenvalues --   -1.05722  -1.05662  -0.96933  -0.96610  -0.88171
 Alpha  occ. eigenvalues --   -0.87935  -0.84950  -0.80280  -0.78762  -0.77878
 Alpha  occ. eigenvalues --   -0.77782  -0.75569  -0.74955  -0.72964  -0.71756
 Alpha  occ. eigenvalues --   -0.66498  -0.65178  -0.64556  -0.64090  -0.62539
 Alpha  occ. eigenvalues --   -0.61349  -0.58907  -0.57203  -0.56617  -0.54100
 Alpha  occ. eigenvalues --   -0.53176  -0.52048  -0.49593  -0.49537  -0.49001
 Alpha  occ. eigenvalues --   -0.48277  -0.47887  -0.47548  -0.46598  -0.46112
 Alpha  occ. eigenvalues --   -0.45807  -0.45381  -0.45028  -0.44478  -0.43957
 Alpha  occ. eigenvalues --   -0.42397  -0.41878  -0.41066  -0.38514  -0.38410
 Alpha  occ. eigenvalues --   -0.38359  -0.37482  -0.36864  -0.36737  -0.36661
 Alpha  occ. eigenvalues --   -0.34875  -0.34702  -0.34434  -0.33837  -0.31595
 Alpha  occ. eigenvalues --   -0.29008  -0.26710  -0.25930  -0.24714  -0.24418
 Alpha  occ. eigenvalues --   -0.21667  -0.21328  -0.20511  -0.20129  -0.16342
 Alpha  occ. eigenvalues --   -0.15215  -0.14764
 Alpha virt. eigenvalues --   -0.04512  -0.02444  -0.00796  -0.00132   0.00818
 Alpha virt. eigenvalues --    0.01345   0.01956   0.03190   0.05367   0.05978
 Alpha virt. eigenvalues --    0.06185   0.07278   0.08746   0.09278   0.10046

  Beta  occ. eigenvalues --  -14.45863 -14.45863 -14.45365 -14.45365 -10.28546
  Beta  occ. eigenvalues --  -10.28546 -10.27826 -10.27825 -10.27581 -10.27581
  Beta  occ. eigenvalues --  -10.27278 -10.27278 -10.25399 -10.25398 -10.24220
  Beta  occ. eigenvalues --  -10.24220 -10.24010 -10.24010 -10.23505 -10.23504
  Beta  occ. eigenvalues --  -10.23443 -10.23442 -10.21483 -10.21480 -10.21066
  Beta  occ. eigenvalues --  -10.19258  -3.83016  -2.34803  -2.34689  -2.30909
  Beta  occ. eigenvalues --   -1.05722  -1.05662  -0.96933  -0.96610  -0.88171
  Beta  occ. eigenvalues --   -0.87935  -0.84950  -0.80280  -0.78762  -0.77878
  Beta  occ. eigenvalues --   -0.77782  -0.75569  -0.74955  -0.72964  -0.71756
  Beta  occ. eigenvalues --   -0.66498  -0.65178  -0.64556  -0.64090  -0.62539
  Beta  occ. eigenvalues --   -0.61349  -0.58907  -0.57203  -0.56617  -0.54100
  Beta  occ. eigenvalues --   -0.53176  -0.52048  -0.49593  -0.49537  -0.49001
  Beta  occ. eigenvalues --   -0.48277  -0.47887  -0.47548  -0.46598  -0.46112
  Beta  occ. eigenvalues --   -0.45807  -0.45381  -0.45028  -0.44478  -0.43957
  Beta  occ. eigenvalues --   -0.42397  -0.41878  -0.41066  -0.38514  -0.38410
  Beta  occ. eigenvalues --   -0.38359  -0.37482  -0.36864  -0.36737  -0.36661
  Beta  occ. eigenvalues --   -0.34876  -0.34702  -0.34434  -0.33837  -0.31595
  Beta  occ. eigenvalues --   -0.29008  -0.26710  -0.25930  -0.24714  -0.24418
  Beta  occ. eigenvalues --   -0.21667  -0.21328  -0.20511  -0.20129  -0.16343
  Beta  occ. eigenvalues --   -0.15215  -0.14764
  Beta virt. eigenvalues --   -0.04512  -0.02444  -0.00796  -0.00132   0.00818
  Beta virt. eigenvalues --    0.01345   0.01956   0.03190   0.05367   0.05978
  Beta virt. eigenvalues --    0.06185   0.07278   0.08746   0.09278   0.10046

 Mulliken charges and spin densities:
               1          2
     1  C   -0.171598  -0.000010
     2  C    0.346999   0.000001
     3  C   -0.214128  -0.000001
     4  C   -0.181536   0.000001
     5  C   -0.214123  -0.000001
     6  C    0.347006   0.000001
     7  H    0.156512  -0.000000
     8  H    0.155525  -0.000000
     9  H    0.156510  -0.000000
    10  C    0.317572   0.000000
    11  C    0.411521  -0.000003
    12  C    0.292300   0.000000
    13  C   -0.193090  -0.000000
    14  C   -0.210671  -0.000000
    15  C   -0.186282  -0.000000
    16  H    0.196510   0.000000
    17  C   -0.182923   0.000000
    18  H    0.176951   0.000000
    19  H    0.174255   0.000000
    20  H    0.171755  -0.000000
    21  C    0.317539   0.000000
    22  C    0.411503  -0.000003
    23  C    0.292277   0.000000
    24  C   -0.193076  -0.000000
    25  C   -0.210660  -0.000000
    26  C   -0.186272  -0.000000
    27  H    0.196512   0.000000
    28  C   -0.182909   0.000000
    29  H    0.176957   0.000000
    30  H    0.174249   0.000000
    31  H    0.171749  -0.000000
    32  N   -0.726810  -0.000000
    33  N   -0.585856  -0.000000
    34  N   -0.726822  -0.000000
    35  N   -0.585865  -0.000000
    36  C   -0.401171  -0.000000
    37  H    0.201920   0.000000
    38  H    0.201934  -0.000000
    39  H    0.226069  -0.000000
    40  C   -0.401170  -0.000000
    41  H    0.201933   0.000000
    42  H    0.201919  -0.000000
    43  H    0.226073  -0.000000
    44  Co  -0.149089   0.000018
 Sum of Mulliken charges =  -0.00000  -0.00000

 Dipole moment (field-independent basis, Debye):
    X=              0.0003    Y=             -3.6243    Z=             -0.0003  Tot=              3.6243
 Quadrupole moment (field-independent basis, Debye-Ang):
   XX=           -124.9065   YY=           -134.7297   ZZ=           -172.3933
   XY=              0.0007   XZ=             -0.0006   YZ=              0.0004

 Normal termination of Gaussian 16 at Wed Jul 17 21:32:53 2024.
