 Gaussian 16, Revision C.01,
 Gaussian 16:  ES64L-G16RevC.01  3-Jul-2019

 ----------------------------------------------------------------------
 # pbe1pbe em=gd3bj genecp g09default scf=(xqc,maxcycle=64) force guess
 =read nosymm
 ----------------------------------------------------------------------

 ----------
 Title Card
 ----------
 Symbolic Z-matrix:
 Charge =  0 Multiplicity = 3

                          Input orientation:
 ---------------------------------------------------------------------
 Center     Atomic      Atomic             Coordinates (Angstroms)
 Number     Number       Type             X           Y           Z
 ---------------------------------------------------------------------
      1          6           0       -0.000002    0.798643    0.000184
      2          6           0       -1.289369    1.352015    0.000023
      3          6           0       -1.247987    2.747713   -0.000012
      4          6           0        0.000006    3.389566   -0.000001
      5          6           0        1.247981    2.747710    0.000023
      6          6           0        1.289385    1.352020    0.000050
      7          1           0       -2.152144    3.343057   -0.000049
      8          1           0        0.000002    4.475401   -0.000025
      9          1           0        2.152151    3.343059    0.000022
     10          6           0        3.716841    0.584913   -0.000046
     11          6           0        1.941746   -0.913966    0.000111
     12          6           0        4.216300   -0.740204   -0.000093
     13          6           0        4.580198    1.663868   -0.000083
     14          6           0        5.584885   -0.993264   -0.000201
     15          6           0        5.964286    1.406405   -0.000186
     16          1           0        4.220602    2.685663   -0.000014
     17          6           0        6.452151    0.109021   -0.000252
     18          1           0        5.972018   -2.006981   -0.000222
     19          1           0        6.654337    2.243883   -0.000199
     20          1           0        7.525190   -0.060819   -0.000326
     21          6           0       -3.716822    0.584848   -0.000057
     22          6           0       -1.941743   -0.913966    0.000084
     23          6           0       -4.216246   -0.740177   -0.000079
     24          6           0       -4.580194    1.663915   -0.000075
     25          6           0       -5.584912   -0.993313   -0.000114
     26          6           0       -5.964302    1.406343   -0.000116
     27          1           0       -4.220605    2.685641   -0.000032
     28          6           0       -6.452127    0.109062   -0.000137
     29          1           0       -5.972004   -2.006978   -0.000091
     30          1           0       -6.654336    2.243881   -0.000113
     31          1           0       -7.525194   -0.060834   -0.000151
     32          7           0       -2.324497    0.469838    0.000063
     33          7           0       -3.149837   -1.604884   -0.000015
     34          7           0        2.324486    0.469835    0.000107
     35          7           0        3.149825   -1.604882    0.000014
     36          6           0        3.237392   -3.030932    0.000020
     37          1           0        3.755389   -3.406165   -0.892311
     38          1           0        3.754817   -3.406227    0.892655
     39          1           0        2.223847   -3.440641   -0.000345
     40          6           0       -3.237378   -3.030939    0.000055
     41          1           0       -3.754734   -3.406197    0.892748
     42          1           0       -3.755455   -3.406201   -0.892219
     43          1           0       -2.223841   -3.440647   -0.000385
     44         27           0        0.000000   -1.254006    0.000129
 ---------------------------------------------------------------------

 SCF Done:  E(UPBE1PBE) =  -1212.11178549     A.U. after   27 cycles

 Alpha  occ. eigenvalues --  -14.45307 -14.45307 -14.45171 -14.45170 -10.28167
 Alpha  occ. eigenvalues --  -10.28167 -10.27585 -10.27584 -10.27249 -10.27249
 Alpha  occ. eigenvalues --  -10.27242 -10.27242 -10.26754 -10.26753 -10.23684
 Alpha  occ. eigenvalues --  -10.23684 -10.23603 -10.23603 -10.23075 -10.23074
 Alpha  occ. eigenvalues --  -10.22967 -10.22966 -10.22402 -10.22391 -10.22293
 Alpha  occ. eigenvalues --  -10.21071  -3.93408  -2.45309  -2.43697  -2.43211
 Alpha  occ. eigenvalues --   -1.05546  -1.05470  -0.96982  -0.96597  -0.88002
 Alpha  occ. eigenvalues --   -0.87609  -0.85595  -0.80403  -0.78815  -0.77582
 Alpha  occ. eigenvalues --   -0.77572  -0.75528  -0.74800  -0.73213  -0.72300
 Alpha  occ. eigenvalues --   -0.66698  -0.65289  -0.64357  -0.64084  -0.62600
 Alpha  occ. eigenvalues --   -0.61274  -0.58913  -0.57582  -0.56565  -0.53932
 Alpha  occ. eigenvalues --   -0.53030  -0.52312  -0.49613  -0.49532  -0.49065
 Alpha  occ. eigenvalues --   -0.48577  -0.48076  -0.47268  -0.46761  -0.45845
 Alpha  occ. eigenvalues --   -0.45681  -0.45326  -0.44816  -0.44749  -0.44044
 Alpha  occ. eigenvalues --   -0.42742  -0.41859  -0.41257  -0.38901  -0.38514
 Alpha  occ. eigenvalues --   -0.38421  -0.37418  -0.37302  -0.37155  -0.36920
 Alpha  occ. eigenvalues --   -0.36326  -0.35092  -0.34549  -0.33930  -0.31949
 Alpha  occ. eigenvalues --   -0.31295  -0.30295  -0.26889  -0.26581  -0.26562
 Alpha  occ. eigenvalues --   -0.26215  -0.26008  -0.24508  -0.24197  -0.22914
 Alpha  occ. eigenvalues --   -0.20928  -0.20669  -0.10102
 Alpha virt. eigenvalues --   -0.06280  -0.03051  -0.00270  -0.00040   0.00318
 Alpha virt. eigenvalues --    0.02210   0.02736   0.03458   0.03840   0.05644
 Alpha virt. eigenvalues --    0.06121   0.07558   0.07610   0.09621   0.10175

  Beta  occ. eigenvalues --  -14.45182 -14.45181 -14.45146 -14.45146 -10.27937
  Beta  occ. eigenvalues --  -10.27937 -10.27586 -10.27586 -10.27286 -10.27286
  Beta  occ. eigenvalues --  -10.27251 -10.27251 -10.26639 -10.26638 -10.23624
  Beta  occ. eigenvalues --  -10.23624 -10.23582 -10.23582 -10.23084 -10.23083
  Beta  occ. eigenvalues --  -10.22932 -10.22931 -10.22492 -10.22488 -10.22188
  Beta  occ. eigenvalues --  -10.21661  -3.85611  -2.36926  -2.36254  -2.33911
  Beta  occ. eigenvalues --   -1.05345  -1.05264  -0.96819  -0.96397  -0.88001
  Beta  occ. eigenvalues --   -0.87539  -0.85704  -0.80344  -0.78794  -0.77522
  Beta  occ. eigenvalues --   -0.77514  -0.75398  -0.74598  -0.73221  -0.72552
  Beta  occ. eigenvalues --   -0.66736  -0.65201  -0.64107  -0.64072  -0.62597
  Beta  occ. eigenvalues --   -0.61176  -0.58907  -0.57684  -0.56560  -0.53914
  Beta  occ. eigenvalues --   -0.53015  -0.52293  -0.49156  -0.49089  -0.49044
  Beta  occ. eigenvalues --   -0.48602  -0.48223  -0.47246  -0.46756  -0.45814
  Beta  occ. eigenvalues --   -0.45682  -0.45295  -0.44823  -0.44400  -0.43733
  Beta  occ. eigenvalues --   -0.42785  -0.41837  -0.41271  -0.38633  -0.38551
  Beta  occ. eigenvalues --   -0.38540  -0.37296  -0.37259  -0.36518  -0.36440
  Beta  occ. eigenvalues --   -0.35629  -0.35170  -0.34010  -0.33290  -0.31617
  Beta  occ. eigenvalues --   -0.29718  -0.27458  -0.26540  -0.25906  -0.24765
  Beta  occ. eigenvalues --   -0.23767  -0.23287  -0.21947  -0.20725  -0.19843
  Beta  occ. eigenvalues --   -0.19554
  Beta virt. eigenvalues --   -0.04433  -0.03881  -0.00778  -0.00361  -0.00117
  Beta virt. eigenvalues --    0.01372   0.01720   0.02398   0.03487   0.05410
  Beta virt. eigenvalues --    0.05707   0.06035   0.07889   0.08627   0.09289

 Mulliken charges and spin densities:
               1          2
     1  C   -0.238415  -0.346968
     2  C    0.392911   0.080908
     3  C   -0.215254  -0.064495
     4  C   -0.178701   0.088531
     5  C   -0.215250  -0.064494
     6  C    0.392916   0.080912
     7  H    0.168238  -0.003927
     8  H    0.163368  -0.004425
     9  H    0.168236  -0.003927
    10  C    0.317605  -0.000476
    11  C    0.371721   0.196276
    12  C    0.295269  -0.022378
    13  C   -0.197755   0.013157
    14  C   -0.216992   0.043958
    15  C   -0.188570   0.024803
    16  H    0.190278  -0.000917
    17  C   -0.182128  -0.010014
    18  H    0.173417  -0.002279
    19  H    0.170790  -0.001476
    20  H    0.169156   0.000171
    21  C    0.317572  -0.000484
    22  C    0.371702   0.196274
    23  C    0.295245  -0.022379
    24  C   -0.197744   0.013171
    25  C   -0.216983   0.043974
    26  C   -0.188559   0.024796
    27  H    0.190278  -0.000917
    28  C   -0.182114  -0.010008
    29  H    0.173421  -0.002280
    30  H    0.170783  -0.001476
    31  H    0.169149   0.000171
    32  N   -0.733171  -0.006252
    33  N   -0.589384   0.036070
    34  N   -0.733184  -0.006253
    35  N   -0.589393   0.036073
    36  C   -0.399657  -0.004411
    37  H    0.201625   0.002013
    38  H    0.201637   0.002020
    39  H    0.217416  -0.000816
    40  C   -0.399655  -0.004411
    41  H    0.201636   0.002020
    42  H    0.201624   0.002012
    43  H    0.217419  -0.000816
    44  Co  -0.040503   1.698963
 Sum of Mulliken charges =  -0.00000   2.00000

 Dipole moment (field-independent basis, Debye):
    X=              0.0006    Y=             -3.3798    Z=             -0.0009  Tot=              3.3798
 Quadrupole moment (field-independent basis, Debye-Ang):
   XX=           -135.5229   YY=           -133.1967   ZZ=           -173.9303
   XY=              0.0007   XZ=             -0.0005   YZ=              0.0020

 Normal termination of Gaussian 16 at Wed Jul 17 21:32:28 2024.
