 Gaussian 16, Revision C.01,
 Gaussian 16:  ES64L-G16RevC.01  3-Jul-2019

 ----------------------------------------------------------------------
 # pbe1pbe em=gd3bj genecp g09default scf=(xqc,maxcycle=64) force guess
 =read nosymm
 ----------------------------------------------------------------------

 ----------
 Title Card
 ----------
 Symbolic Z-matrix:
 Charge =  0 Multiplicity = 1

                          Input orientation:
 ---------------------------------------------------------------------
 Center     Atomic      Atomic             Coordinates (Angstroms)
 Number     Number       Type             X           Y           Z
 ---------------------------------------------------------------------
      1          6           0        0.000001    0.599589    0.000062
      2          6           0       -1.176735    1.363929    0.000049
      3          6           0       -1.229178    2.750779   -0.000000
      4          6           0        0.000000    3.429887    0.000012
      5          6           0        1.229181    2.750779    0.000051
      6          6           0        1.176737    1.363932    0.000089
      7          1           0       -2.153049    3.327761   -0.000047
      8          1           0        0.000001    4.506921   -0.000010
      9          1           0        2.153052    3.327762    0.000050
     10          6           0        3.646063    0.570586   -0.000016
     11          6           0        1.880820   -0.889651    0.000099
     12          6           0        4.168566   -0.737594   -0.000111
     13          6           0        4.525239    1.665401   -0.000047
     14          6           0        5.529182   -1.000304   -0.000209
     15          6           0        5.886582    1.402462   -0.000169
     16          1           0        4.158505    2.684714    0.000015
     17          6           0        6.389586    0.090498   -0.000239
     18          1           0        5.907406   -2.018372   -0.000252
     19          1           0        6.587917    2.233814   -0.000197
     20          1           0        7.461982   -0.071415   -0.000321
     21          6           0       -3.646063    0.570583   -0.000022
     22          6           0       -1.880815   -0.889651    0.000023
     23          6           0       -4.168553   -0.737598   -0.000068
     24          6           0       -4.525232    1.665394   -0.000047
     25          6           0       -5.529182   -1.000313   -0.000108
     26          6           0       -5.886585    1.402453   -0.000096
     27          1           0       -4.158505    2.684709   -0.000020
     28          6           0       -6.389577    0.090489   -0.000119
     29          1           0       -5.907399   -2.018380   -0.000111
     30          1           0       -6.587915    2.233803   -0.000110
     31          1           0       -7.461979   -0.071427   -0.000149
     32          7           0       -2.268272    0.419278    0.000003
     33          7           0       -3.056651   -1.579350   -0.000040
     34          7           0        2.268276    0.419274    0.000095
     35          7           0        3.056654   -1.579343   -0.000064
     36          6           0        3.170126   -3.024688    0.000001
     37          1           0        3.703866   -3.373084   -0.891476
     38          1           0        3.703451   -3.373081    0.891735
     39          1           0        2.163581   -3.440070   -0.000236
     40          6           0       -3.170116   -3.024690    0.000039
     41          1           0       -3.703379   -3.373075    0.891813
     42          1           0       -3.703916   -3.373101   -0.891398
     43          1           0       -2.163572   -3.440073   -0.000264
     44         27           0        0.000006   -1.125460    0.000148
 ---------------------------------------------------------------------

 SCF Done:  E(UPBE1PBE) =  -1212.14700949     A.U. after   14 cycles

 Alpha  occ. eigenvalues --  -14.45289 -14.45289 -14.44478 -14.44476 -10.27283
 Alpha  occ. eigenvalues --  -10.27282 -10.27110 -10.27109 -10.27082 -10.27082
 Alpha  occ. eigenvalues --  -10.26999 -10.26998 -10.24761 -10.24761 -10.24112
 Alpha  occ. eigenvalues --  -10.24111 -10.23957 -10.23957 -10.23433 -10.23433
 Alpha  occ. eigenvalues --  -10.23366 -10.23366 -10.21656 -10.21653 -10.21097
 Alpha  occ. eigenvalues --  -10.18306  -3.83521  -2.35829  -2.34892  -2.31477
 Alpha  occ. eigenvalues --   -1.06172  -1.06091  -0.95587  -0.95138  -0.88059
 Alpha  occ. eigenvalues --   -0.87852  -0.85103  -0.79306  -0.78421  -0.77819
 Alpha  occ. eigenvalues --   -0.77739  -0.75779  -0.75037  -0.72461  -0.72421
 Alpha  occ. eigenvalues --   -0.66215  -0.64885  -0.64285  -0.63171  -0.62798
 Alpha  occ. eigenvalues --   -0.61059  -0.58677  -0.57623  -0.55872  -0.53911
 Alpha  occ. eigenvalues --   -0.53081  -0.51533  -0.49396  -0.49331  -0.49176
 Alpha  occ. eigenvalues --   -0.47622  -0.47614  -0.46618  -0.46571  -0.45898
 Alpha  occ. eigenvalues --   -0.45705  -0.44848  -0.44320  -0.44179  -0.43696
 Alpha  occ. eigenvalues --   -0.41976  -0.41756  -0.41215  -0.38705  -0.38648
 Alpha  occ. eigenvalues --   -0.38245  -0.37759  -0.37210  -0.36544  -0.36194
 Alpha  occ. eigenvalues --   -0.35847  -0.34581  -0.33928  -0.33168  -0.31331
 Alpha  occ. eigenvalues --   -0.28735  -0.28380  -0.26325  -0.26295  -0.24942
 Alpha  occ. eigenvalues --   -0.24571  -0.22055  -0.21705  -0.20729  -0.15861
 Alpha  occ. eigenvalues --   -0.15828  -0.15233
 Alpha virt. eigenvalues --   -0.03815  -0.02034  -0.00300   0.00437   0.01102
 Alpha virt. eigenvalues --    0.01535   0.02042   0.03753   0.05459   0.06023
 Alpha virt. eigenvalues --    0.06941   0.07863   0.09164   0.09563   0.10116

  Beta  occ. eigenvalues --  -14.45289 -14.45289 -14.44478 -14.44476 -10.27283
  Beta  occ. eigenvalues --  -10.27282 -10.27110 -10.27109 -10.27082 -10.27082
  Beta  occ. eigenvalues --  -10.26999 -10.26998 -10.24761 -10.24761 -10.24112
  Beta  occ. eigenvalues --  -10.24111 -10.23957 -10.23957 -10.23433 -10.23433
  Beta  occ. eigenvalues --  -10.23366 -10.23366 -10.21656 -10.21653 -10.21097
  Beta  occ. eigenvalues --  -10.18306  -3.83521  -2.35829  -2.34892  -2.31477
  Beta  occ. eigenvalues --   -1.06172  -1.06091  -0.95587  -0.95138  -0.88059
  Beta  occ. eigenvalues --   -0.87852  -0.85103  -0.79306  -0.78421  -0.77819
  Beta  occ. eigenvalues --   -0.77739  -0.75779  -0.75037  -0.72461  -0.72421
  Beta  occ. eigenvalues --   -0.66215  -0.64885  -0.64285  -0.63171  -0.62798
  Beta  occ. eigenvalues --   -0.61059  -0.58677  -0.57623  -0.55872  -0.53911
  Beta  occ. eigenvalues --   -0.53081  -0.51533  -0.49396  -0.49331  -0.49176
  Beta  occ. eigenvalues --   -0.47622  -0.47614  -0.46618  -0.46571  -0.45898
  Beta  occ. eigenvalues --   -0.45705  -0.44848  -0.44320  -0.44179  -0.43696
  Beta  occ. eigenvalues --   -0.41976  -0.41756  -0.41215  -0.38705  -0.38648
  Beta  occ. eigenvalues --   -0.38245  -0.37759  -0.37210  -0.36544  -0.36194
  Beta  occ. eigenvalues --   -0.35847  -0.34581  -0.33928  -0.33168  -0.31331
  Beta  occ. eigenvalues --   -0.28735  -0.28380  -0.26325  -0.26295  -0.24942
  Beta  occ. eigenvalues --   -0.24571  -0.22055  -0.21705  -0.20729  -0.15861
  Beta  occ. eigenvalues --   -0.15828  -0.15233
  Beta virt. eigenvalues --   -0.03815  -0.02034  -0.00300   0.00437   0.01102
  Beta virt. eigenvalues --    0.01535   0.02042   0.03753   0.05459   0.06023
  Beta virt. eigenvalues --    0.06941   0.07863   0.09164   0.09563   0.10116

 Mulliken charges and spin densities:
               1          2
     1  C   -0.229727  -0.000000
     2  C    0.259911   0.000000
     3  C   -0.181374  -0.000000
     4  C   -0.216739   0.000000
     5  C   -0.181375  -0.000000
     6  C    0.259912   0.000000
     7  H    0.168764   0.000000
     8  H    0.157581  -0.000000
     9  H    0.168764   0.000000
    10  C    0.304626   0.000000
    11  C    0.412388  -0.000000
    12  C    0.279482   0.000000
    13  C   -0.180630  -0.000000
    14  C   -0.200725  -0.000000
    15  C   -0.187091   0.000000
    16  H    0.193088   0.000000
    17  C   -0.189754  -0.000000
    18  H    0.176586   0.000000
    19  H    0.172809   0.000000
    20  H    0.171922   0.000000
    21  C    0.304631   0.000000
    22  C    0.412387  -0.000000
    23  C    0.279476   0.000000
    24  C   -0.180635  -0.000000
    25  C   -0.200720  -0.000000
    26  C   -0.187091   0.000000
    27  H    0.193089   0.000000
    28  C   -0.189753  -0.000000
    29  H    0.176586   0.000000
    30  H    0.172810   0.000000
    31  H    0.171921   0.000000
    32  N   -0.695609  -0.000000
    33  N   -0.613908  -0.000000
    34  N   -0.695608  -0.000000
    35  N   -0.613913  -0.000000
    36  C   -0.396776  -0.000000
    37  H    0.201713  -0.000000
    38  H    0.201722  -0.000000
    39  H    0.221379  -0.000000
    40  C   -0.396777  -0.000000
    41  H    0.201722  -0.000000
    42  H    0.201713  -0.000000
    43  H    0.221380  -0.000000
    44  Co   0.051846   0.000000
 Sum of Mulliken charges =  -0.00000  -0.00000

 Dipole moment (field-independent basis, Debye):
    X=             -0.0000    Y=             -3.4823    Z=             -0.0001  Tot=              3.4823
 Quadrupole moment (field-independent basis, Debye-Ang):
   XX=           -126.8189   YY=           -133.8310   ZZ=           -172.0834
   XY=             -0.0000   XZ=             -0.0004   YZ=             -0.0003

 Normal termination of Gaussian 16 at Wed Jul 17 20:41:06 2024.
