 Gaussian 16, Revision C.01,
 Gaussian 16:  ES64L-G16RevC.01  3-Jul-2019

 ----------------------------------------------------------------------
 # pbe1pbe em=gd3bj genecp g09default scf=(xqc,maxcycle=64) force guess
 =read nosymm
 ----------------------------------------------------------------------

 ----------
 Title Card
 ----------
 Symbolic Z-matrix:
 Charge =  0 Multiplicity = 3

                          Input orientation:
 ---------------------------------------------------------------------
 Center     Atomic      Atomic             Coordinates (Angstroms)
 Number     Number       Type             X           Y           Z
 ---------------------------------------------------------------------
      1          6           0        0.000001    0.599589    0.000062
      2          6           0       -1.176735    1.363929    0.000049
      3          6           0       -1.229178    2.750779   -0.000000
      4          6           0        0.000000    3.429887    0.000012
      5          6           0        1.229181    2.750779    0.000051
      6          6           0        1.176737    1.363932    0.000089
      7          1           0       -2.153049    3.327761   -0.000047
      8          1           0        0.000001    4.506921   -0.000010
      9          1           0        2.153052    3.327762    0.000050
     10          6           0        3.646063    0.570586   -0.000016
     11          6           0        1.880820   -0.889651    0.000099
     12          6           0        4.168566   -0.737594   -0.000111
     13          6           0        4.525239    1.665401   -0.000047
     14          6           0        5.529182   -1.000304   -0.000209
     15          6           0        5.886582    1.402462   -0.000169
     16          1           0        4.158505    2.684714    0.000015
     17          6           0        6.389586    0.090498   -0.000239
     18          1           0        5.907406   -2.018372   -0.000252
     19          1           0        6.587917    2.233814   -0.000197
     20          1           0        7.461982   -0.071415   -0.000321
     21          6           0       -3.646063    0.570583   -0.000022
     22          6           0       -1.880815   -0.889651    0.000023
     23          6           0       -4.168553   -0.737598   -0.000068
     24          6           0       -4.525232    1.665394   -0.000047
     25          6           0       -5.529182   -1.000313   -0.000108
     26          6           0       -5.886585    1.402453   -0.000096
     27          1           0       -4.158505    2.684709   -0.000020
     28          6           0       -6.389577    0.090489   -0.000119
     29          1           0       -5.907399   -2.018380   -0.000111
     30          1           0       -6.587915    2.233803   -0.000110
     31          1           0       -7.461979   -0.071427   -0.000149
     32          7           0       -2.268272    0.419278    0.000003
     33          7           0       -3.056651   -1.579350   -0.000040
     34          7           0        2.268276    0.419274    0.000095
     35          7           0        3.056654   -1.579343   -0.000064
     36          6           0        3.170126   -3.024688    0.000001
     37          1           0        3.703866   -3.373084   -0.891476
     38          1           0        3.703451   -3.373081    0.891735
     39          1           0        2.163581   -3.440070   -0.000236
     40          6           0       -3.170116   -3.024690    0.000039
     41          1           0       -3.703379   -3.373075    0.891813
     42          1           0       -3.703916   -3.373101   -0.891398
     43          1           0       -2.163572   -3.440073   -0.000264
     44         27           0        0.000006   -1.125460    0.000148
 ---------------------------------------------------------------------

 SCF Done:  E(UPBE1PBE) =  -1212.12290553     A.U. after   18 cycles

 Alpha  occ. eigenvalues --  -14.44891 -14.44891 -14.44422 -14.44421 -10.27145
 Alpha  occ. eigenvalues --  -10.27144 -10.27129 -10.27129 -10.26989 -10.26988
 Alpha  occ. eigenvalues --  -10.26851 -10.26851 -10.26420 -10.26420 -10.23624
 Alpha  occ. eigenvalues --  -10.23624 -10.23571 -10.23571 -10.23027 -10.23027
 Alpha  occ. eigenvalues --  -10.22940 -10.22940 -10.22716 -10.22530 -10.22524
 Alpha  occ. eigenvalues --  -10.19517  -3.93638  -2.47013  -2.43405  -2.42362
 Alpha  occ. eigenvalues --   -1.06142  -1.06042  -0.95784  -0.95230  -0.87940
 Alpha  occ. eigenvalues --   -0.87568  -0.85954  -0.79564  -0.78795  -0.77592
 Alpha  occ. eigenvalues --   -0.77476  -0.75847  -0.75082  -0.72985  -0.72867
 Alpha  occ. eigenvalues --   -0.66445  -0.65065  -0.64169  -0.63308  -0.62987
 Alpha  occ. eigenvalues --   -0.61108  -0.58710  -0.58259  -0.55898  -0.53809
 Alpha  occ. eigenvalues --   -0.53046  -0.51846  -0.49700  -0.49523  -0.49426
 Alpha  occ. eigenvalues --   -0.47763  -0.47414  -0.46917  -0.46519  -0.45719
 Alpha  occ. eigenvalues --   -0.45709  -0.44680  -0.44664  -0.44546  -0.43842
 Alpha  occ. eigenvalues --   -0.42038  -0.41896  -0.41805  -0.39630  -0.38974
 Alpha  occ. eigenvalues --   -0.38720  -0.38162  -0.37806  -0.37180  -0.36642
 Alpha  occ. eigenvalues --   -0.35864  -0.34898  -0.34479  -0.33398  -0.32763
 Alpha  occ. eigenvalues --   -0.32544  -0.31710  -0.29900  -0.27473  -0.26913
 Alpha  occ. eigenvalues --   -0.26522  -0.25945  -0.24646  -0.23433  -0.23008
 Alpha  occ. eigenvalues --   -0.21049  -0.20955  -0.09509
 Alpha virt. eigenvalues --   -0.05240  -0.01647   0.00017   0.00255   0.00411
 Alpha virt. eigenvalues --    0.02256   0.03125   0.03688   0.04889   0.05739
 Alpha virt. eigenvalues --    0.06768   0.07999   0.08034   0.09806   0.10197

  Beta  occ. eigenvalues --  -14.44756 -14.44756 -14.44394 -14.44393 -10.27153
  Beta  occ. eigenvalues --  -10.27152 -10.27139 -10.27139 -10.26882 -10.26882
  Beta  occ. eigenvalues --  -10.26809 -10.26808 -10.26210 -10.26210 -10.23574
  Beta  occ. eigenvalues --  -10.23574 -10.23538 -10.23538 -10.23022 -10.23022
  Beta  occ. eigenvalues --  -10.22918 -10.22917 -10.22665 -10.22659 -10.22449
  Beta  occ. eigenvalues --  -10.19753  -3.87510  -2.39572  -2.38507  -2.34960
  Beta  occ. eigenvalues --   -1.05939  -1.05841  -0.95557  -0.95002  -0.87859
  Beta  occ. eigenvalues --   -0.87493  -0.85829  -0.79433  -0.78694  -0.77524
  Beta  occ. eigenvalues --   -0.77395  -0.75704  -0.74890  -0.72941  -0.72863
  Beta  occ. eigenvalues --   -0.66442  -0.64760  -0.63969  -0.63295  -0.62877
  Beta  occ. eigenvalues --   -0.61014  -0.58647  -0.58115  -0.55844  -0.53741
  Beta  occ. eigenvalues --   -0.53000  -0.51744  -0.49721  -0.49060  -0.48989
  Beta  occ. eigenvalues --   -0.47602  -0.47378  -0.46874  -0.46481  -0.45685
  Beta  occ. eigenvalues --   -0.45672  -0.44639  -0.44615  -0.44109  -0.43543
  Beta  occ. eigenvalues --   -0.41998  -0.41883  -0.41792  -0.39596  -0.38676
  Beta  occ. eigenvalues --   -0.38324  -0.37894  -0.37162  -0.36951  -0.36186
  Beta  occ. eigenvalues --   -0.35837  -0.34411  -0.34319  -0.32758  -0.32632
  Beta  occ. eigenvalues --   -0.31227  -0.29440  -0.26200  -0.26162  -0.25296
  Beta  occ. eigenvalues --   -0.25022  -0.24046  -0.22302  -0.21414  -0.20664
  Beta  occ. eigenvalues --   -0.20024
  Beta virt. eigenvalues --   -0.04840  -0.03903  -0.01833  -0.00122   0.00318
  Beta virt. eigenvalues --    0.01303   0.01852   0.02439   0.03833   0.05891
  Beta virt. eigenvalues --    0.06096   0.06290   0.08337   0.08947   0.09412

 Mulliken charges and spin densities:
               1          2
     1  C   -0.338011  -0.140542
     2  C    0.307944   0.138437
     3  C   -0.183194  -0.095544
     4  C   -0.208982   0.184846
     5  C   -0.183196  -0.095542
     6  C    0.307944   0.138433
     7  H    0.178297   0.002524
     8  H    0.167248  -0.009918
     9  H    0.178297   0.002524
    10  C    0.305680  -0.006153
    11  C    0.382095   0.159717
    12  C    0.282965  -0.018340
    13  C   -0.185976   0.022233
    14  C   -0.206696   0.036141
    15  C   -0.188589   0.015554
    16  H    0.187067  -0.001327
    17  C   -0.189663   0.000911
    18  H    0.173360  -0.001957
    19  H    0.169685  -0.001037
    20  H    0.169438  -0.000347
    21  C    0.305685  -0.006151
    22  C    0.382095   0.159728
    23  C    0.282958  -0.018341
    24  C   -0.185981   0.022231
    25  C   -0.206691   0.036144
    26  C   -0.188590   0.015558
    27  H    0.187067  -0.001327
    28  C   -0.189662   0.000907
    29  H    0.173360  -0.001957
    30  H    0.169686  -0.001037
    31  H    0.169437  -0.000347
    32  N   -0.701928  -0.003664
    33  N   -0.619596   0.041622
    34  N   -0.701927  -0.003664
    35  N   -0.619602   0.041623
    36  C   -0.395184  -0.004428
    37  H    0.202319   0.002047
    38  H    0.202328   0.002054
    39  H    0.212970  -0.000390
    40  C   -0.395185  -0.004428
    41  H    0.202328   0.002054
    42  H    0.202318   0.002047
    43  H    0.212970  -0.000390
    44  Co   0.173112   1.389493
 Sum of Mulliken charges =  -0.00000   2.00000

 Dipole moment (field-independent basis, Debye):
    X=              0.0001    Y=             -3.1172    Z=             -0.0011  Tot=              3.1172
 Quadrupole moment (field-independent basis, Debye-Ang):
   XX=           -136.2848   YY=           -131.7278   ZZ=           -173.9429
   XY=             -0.0001   XZ=             -0.0004   YZ=              0.0027

 Normal termination of Gaussian 16 at Wed Jul 17 20:40:37 2024.
