 Gaussian 16, Revision C.01,
 Gaussian 16:  ES64L-G16RevC.01  3-Jul-2019

 ----------------------------------------------------------------------
 # pbe1pbe em=gd3bj genecp g09default scf=(xqc,maxcycle=64) force guess
 =read nosymm
 ----------------------------------------------------------------------

 ----------
 Title Card
 ----------
 Symbolic Z-matrix:
 Charge =  0 Multiplicity = 1

                          Input orientation:
 ---------------------------------------------------------------------
 Center     Atomic      Atomic             Coordinates (Angstroms)
 Number     Number       Type             X           Y           Z
 ---------------------------------------------------------------------
      1          6           0        0.000001    0.657638    0.000108
      2          6           0       -1.215120    1.358393    0.000036
      3          6           0       -1.237004    2.748742   -0.000004
      4          6           0        0.000001    3.414793    0.000014
      5          6           0        1.237006    2.748743    0.000048
      6          6           0        1.215123    1.358395    0.000077
      7          1           0       -2.155081    3.326322   -0.000045
      8          1           0        0.000001    4.498379   -0.000011
      9          1           0        2.155083    3.326323    0.000051
     10          6           0        3.655504    0.575814   -0.000020
     11          6           0        1.884041   -0.894278    0.000085
     12          6           0        4.166334   -0.739189   -0.000101
     13          6           0        4.525737    1.665162   -0.000050
     14          6           0        5.528894   -1.001522   -0.000206
     15          6           0        5.895955    1.401081   -0.000169
     16          1           0        4.159179    2.684204    0.000014
     17          6           0        6.390661    0.095421   -0.000241
     18          1           0        5.906965   -2.018525   -0.000250
     19          1           0        6.590869    2.235228   -0.000196
     20          1           0        7.462534   -0.071069   -0.000322
     21          6           0       -3.655502    0.575811   -0.000028
     22          6           0       -1.884035   -0.894277    0.000025
     23          6           0       -4.166325   -0.739194   -0.000065
     24          6           0       -4.525733    1.665155   -0.000049
     25          6           0       -5.528890   -1.001530   -0.000105
     26          6           0       -5.895955    1.401073   -0.000097
     27          1           0       -4.159179    2.684199   -0.000021
     28          6           0       -6.390654    0.095412   -0.000121
     29          1           0       -5.906958   -2.018533   -0.000110
     30          1           0       -6.590868    2.235217   -0.000109
     31          1           0       -7.462531   -0.071080   -0.000150
     32          7           0       -2.275901    0.440876    0.000009
     33          7           0       -3.070718   -1.586777   -0.000032
     34          7           0        2.275904    0.440875    0.000093
     35          7           0        3.070722   -1.586771   -0.000048
     36          6           0        3.174381   -3.023601    0.000004
     37          1           0        3.704021   -3.377360   -0.892397
     38          1           0        3.703601   -3.377360    0.892657
     39          1           0        2.166790   -3.442084   -0.000243
     40          6           0       -3.174371   -3.023603    0.000042
     41          1           0       -3.703530   -3.377352    0.892736
     42          1           0       -3.704071   -3.377377   -0.892319
     43          1           0       -2.166780   -3.442086   -0.000270
     44         27           0        0.000004   -1.155611    0.000123
 ---------------------------------------------------------------------

 SCF Done:  E(UPBE1PBE) =  -1212.15321493     A.U. after   16 cycles

 Alpha  occ. eigenvalues --  -14.45463 -14.45463 -14.44726 -14.44725 -10.27461
 Alpha  occ. eigenvalues --  -10.27460 -10.27391 -10.27391 -10.27213 -10.27213
 Alpha  occ. eigenvalues --  -10.27180 -10.27180 -10.24795 -10.24795 -10.24123
 Alpha  occ. eigenvalues --  -10.24123 -10.23926 -10.23926 -10.23415 -10.23415
 Alpha  occ. eigenvalues --  -10.23353 -10.23353 -10.21514 -10.21510 -10.21175
 Alpha  occ. eigenvalues --  -10.18480  -3.83454  -2.35488  -2.34973  -2.31415
 Alpha  occ. eigenvalues --   -1.06072  -1.05993  -0.96234  -0.95829  -0.88102
 Alpha  occ. eigenvalues --   -0.87877  -0.84933  -0.79754  -0.78528  -0.77826
 Alpha  occ. eigenvalues --   -0.77783  -0.75720  -0.75048  -0.72598  -0.72175
 Alpha  occ. eigenvalues --   -0.66391  -0.64983  -0.64432  -0.63561  -0.62769
 Alpha  occ. eigenvalues --   -0.61212  -0.58769  -0.57449  -0.56191  -0.53967
 Alpha  occ. eigenvalues --   -0.53092  -0.51664  -0.49527  -0.49463  -0.49003
 Alpha  occ. eigenvalues --   -0.47821  -0.47556  -0.46920  -0.46757  -0.45897
 Alpha  occ. eigenvalues --   -0.45864  -0.44922  -0.44809  -0.44370  -0.43858
 Alpha  occ. eigenvalues --   -0.41981  -0.41950  -0.41300  -0.38551  -0.38486
 Alpha  occ. eigenvalues --   -0.38334  -0.37375  -0.37326  -0.36645  -0.36410
 Alpha  occ. eigenvalues --   -0.35887  -0.34475  -0.34343  -0.33474  -0.31405
 Alpha  occ. eigenvalues --   -0.28892  -0.26444  -0.26443  -0.26121  -0.24894
 Alpha  occ. eigenvalues --   -0.24509  -0.21513  -0.21500  -0.20654  -0.16027
 Alpha  occ. eigenvalues --   -0.15708  -0.15175
 Alpha virt. eigenvalues --   -0.04168  -0.02182  -0.00393   0.00237   0.00996
 Alpha virt. eigenvalues --    0.01460   0.02068   0.03631   0.05396   0.05968
 Alpha virt. eigenvalues --    0.06803   0.07640   0.09312   0.09374   0.10156

  Beta  occ. eigenvalues --  -14.45463 -14.45463 -14.44726 -14.44725 -10.27461
  Beta  occ. eigenvalues --  -10.27460 -10.27391 -10.27391 -10.27213 -10.27213
  Beta  occ. eigenvalues --  -10.27180 -10.27180 -10.24795 -10.24795 -10.24123
  Beta  occ. eigenvalues --  -10.24123 -10.23926 -10.23926 -10.23415 -10.23415
  Beta  occ. eigenvalues --  -10.23353 -10.23353 -10.21514 -10.21510 -10.21175
  Beta  occ. eigenvalues --  -10.18480  -3.83454  -2.35488  -2.34973  -2.31415
  Beta  occ. eigenvalues --   -1.06072  -1.05993  -0.96234  -0.95829  -0.88102
  Beta  occ. eigenvalues --   -0.87877  -0.84933  -0.79754  -0.78528  -0.77826
  Beta  occ. eigenvalues --   -0.77783  -0.75720  -0.75048  -0.72598  -0.72175
  Beta  occ. eigenvalues --   -0.66391  -0.64983  -0.64432  -0.63561  -0.62769
  Beta  occ. eigenvalues --   -0.61212  -0.58769  -0.57449  -0.56191  -0.53967
  Beta  occ. eigenvalues --   -0.53092  -0.51664  -0.49527  -0.49463  -0.49003
  Beta  occ. eigenvalues --   -0.47821  -0.47556  -0.46920  -0.46757  -0.45897
  Beta  occ. eigenvalues --   -0.45864  -0.44922  -0.44809  -0.44370  -0.43858
  Beta  occ. eigenvalues --   -0.41981  -0.41950  -0.41300  -0.38551  -0.38486
  Beta  occ. eigenvalues --   -0.38334  -0.37375  -0.37326  -0.36645  -0.36410
  Beta  occ. eigenvalues --   -0.35887  -0.34475  -0.34343  -0.33474  -0.31405
  Beta  occ. eigenvalues --   -0.28892  -0.26444  -0.26443  -0.26121  -0.24894
  Beta  occ. eigenvalues --   -0.24509  -0.21513  -0.21500  -0.20654  -0.16027
  Beta  occ. eigenvalues --   -0.15708  -0.15175
  Beta virt. eigenvalues --   -0.04168  -0.02182  -0.00393   0.00237   0.00996
  Beta virt. eigenvalues --    0.01460   0.02068   0.03631   0.05396   0.05968
  Beta virt. eigenvalues --    0.06803   0.07640   0.09312   0.09374   0.10156

 Mulliken charges and spin densities:
               1          2
     1  C   -0.216479  -0.000000
     2  C    0.287978   0.000000
     3  C   -0.185361  -0.000000
     4  C   -0.211662   0.000000
     5  C   -0.185361  -0.000000
     6  C    0.287978   0.000000
     7  H    0.164847  -0.000000
     8  H    0.156937  -0.000000
     9  H    0.164847  -0.000000
    10  C    0.309515   0.000000
    11  C    0.407780  -0.000000
    12  C    0.284046   0.000000
    13  C   -0.184984  -0.000000
    14  C   -0.204668  -0.000000
    15  C   -0.187026  -0.000000
    16  H    0.194630   0.000000
    17  C   -0.187575  -0.000000
    18  H    0.176697   0.000000
    19  H    0.173096   0.000000
    20  H    0.171431   0.000000
    21  C    0.309519   0.000000
    22  C    0.407779  -0.000000
    23  C    0.284043   0.000000
    24  C   -0.184987  -0.000000
    25  C   -0.204666  -0.000000
    26  C   -0.187026  -0.000000
    27  H    0.194630   0.000000
    28  C   -0.187575  -0.000000
    29  H    0.176697   0.000000
    30  H    0.173096   0.000000
    31  H    0.171430   0.000000
    32  N   -0.706981  -0.000000
    33  N   -0.604517  -0.000000
    34  N   -0.706980  -0.000000
    35  N   -0.604520  -0.000000
    36  C   -0.398617  -0.000000
    37  H    0.201843  -0.000000
    38  H    0.201852  -0.000000
    39  H    0.222644  -0.000000
    40  C   -0.398617  -0.000000
    41  H    0.201853  -0.000000
    42  H    0.201842  -0.000000
    43  H    0.222644  -0.000000
    44  Co  -0.002053   0.000000
 Sum of Mulliken charges =  -0.00000   0.00000

 Dipole moment (field-independent basis, Debye):
    X=              0.0000    Y=             -3.5661    Z=             -0.0001  Tot=              3.5661
 Quadrupole moment (field-independent basis, Debye-Ang):
   XX=           -126.9522   YY=           -134.1620   ZZ=           -172.1123
   XY=             -0.0001   XZ=             -0.0005   YZ=              0.0000

 Normal termination of Gaussian 16 at Wed Jul 17 20:42:24 2024.
