 Gaussian 16, Revision C.01,
 Gaussian 16:  ES64L-G16RevC.01  3-Jul-2019

 ----------------------------------------------------------------------
 # pbe1pbe em=gd3bj genecp g09default scf=(xqc,maxcycle=64) force guess
 =read nosymm
 ----------------------------------------------------------------------

 ----------
 Title Card
 ----------
 Symbolic Z-matrix:
 Charge =  0 Multiplicity = 3

                          Input orientation:
 ---------------------------------------------------------------------
 Center     Atomic      Atomic             Coordinates (Angstroms)
 Number     Number       Type             X           Y           Z
 ---------------------------------------------------------------------
      1          6           0        0.000001    0.657638    0.000108
      2          6           0       -1.215120    1.358393    0.000036
      3          6           0       -1.237004    2.748742   -0.000004
      4          6           0        0.000001    3.414793    0.000014
      5          6           0        1.237006    2.748743    0.000048
      6          6           0        1.215123    1.358395    0.000077
      7          1           0       -2.155081    3.326322   -0.000045
      8          1           0        0.000001    4.498379   -0.000011
      9          1           0        2.155083    3.326323    0.000051
     10          6           0        3.655504    0.575814   -0.000020
     11          6           0        1.884041   -0.894278    0.000085
     12          6           0        4.166334   -0.739189   -0.000101
     13          6           0        4.525737    1.665162   -0.000050
     14          6           0        5.528894   -1.001522   -0.000206
     15          6           0        5.895955    1.401081   -0.000169
     16          1           0        4.159179    2.684204    0.000014
     17          6           0        6.390661    0.095421   -0.000241
     18          1           0        5.906965   -2.018525   -0.000250
     19          1           0        6.590869    2.235228   -0.000196
     20          1           0        7.462534   -0.071069   -0.000322
     21          6           0       -3.655502    0.575811   -0.000028
     22          6           0       -1.884035   -0.894277    0.000025
     23          6           0       -4.166325   -0.739194   -0.000065
     24          6           0       -4.525733    1.665155   -0.000049
     25          6           0       -5.528890   -1.001530   -0.000105
     26          6           0       -5.895955    1.401073   -0.000097
     27          1           0       -4.159179    2.684199   -0.000021
     28          6           0       -6.390654    0.095412   -0.000121
     29          1           0       -5.906958   -2.018533   -0.000110
     30          1           0       -6.590868    2.235217   -0.000109
     31          1           0       -7.462531   -0.071080   -0.000150
     32          7           0       -2.275901    0.440876    0.000009
     33          7           0       -3.070718   -1.586777   -0.000032
     34          7           0        2.275904    0.440875    0.000093
     35          7           0        3.070722   -1.586771   -0.000048
     36          6           0        3.174381   -3.023601    0.000004
     37          1           0        3.704021   -3.377360   -0.892397
     38          1           0        3.703601   -3.377360    0.892657
     39          1           0        2.166790   -3.442084   -0.000243
     40          6           0       -3.174371   -3.023603    0.000042
     41          1           0       -3.703530   -3.377352    0.892736
     42          1           0       -3.704071   -3.377377   -0.892319
     43          1           0       -2.166780   -3.442086   -0.000270
     44         27           0        0.000004   -1.155611    0.000123
 ---------------------------------------------------------------------

 SCF Done:  E(UPBE1PBE) =  -1212.13677747     A.U. after   24 cycles

 Alpha  occ. eigenvalues --  -14.45030 -14.45030 -14.44598 -14.44597 -10.27359
 Alpha  occ. eigenvalues --  -10.27358 -10.27224 -10.27224 -10.27202 -10.27202
 Alpha  occ. eigenvalues --  -10.26949 -10.26949 -10.26255 -10.26255 -10.23627
 Alpha  occ. eigenvalues --  -10.23627 -10.23530 -10.23530 -10.23002 -10.23002
 Alpha  occ. eigenvalues --  -10.22910 -10.22910 -10.22601 -10.22340 -10.22336
 Alpha  occ. eigenvalues --  -10.19819  -3.93719  -2.46655  -2.43623  -2.42705
 Alpha  occ. eigenvalues --   -1.06001  -1.05904  -0.96373  -0.95886  -0.87958
 Alpha  occ. eigenvalues --   -0.87583  -0.85661  -0.79948  -0.78779  -0.77617
 Alpha  occ. eigenvalues --   -0.77511  -0.75731  -0.75018  -0.72944  -0.72725
 Alpha  occ. eigenvalues --   -0.66600  -0.65147  -0.64298  -0.63669  -0.62897
 Alpha  occ. eigenvalues --   -0.61214  -0.58766  -0.57990  -0.56163  -0.53834
 Alpha  occ. eigenvalues --   -0.53026  -0.51941  -0.49638  -0.49548  -0.49362
 Alpha  occ. eigenvalues --   -0.48082  -0.47329  -0.47017  -0.46925  -0.45750
 Alpha  occ. eigenvalues --   -0.45727  -0.45048  -0.44710  -0.44704  -0.43995
 Alpha  occ. eigenvalues --   -0.42254  -0.42043  -0.41616  -0.39076  -0.38888
 Alpha  occ. eigenvalues --   -0.38675  -0.38210  -0.37524  -0.37246  -0.36730
 Alpha  occ. eigenvalues --   -0.36129  -0.34770  -0.34713  -0.33676  -0.32288
 Alpha  occ. eigenvalues --   -0.31759  -0.30877  -0.30186  -0.27374  -0.27003
 Alpha  occ. eigenvalues --   -0.26549  -0.25970  -0.24608  -0.23717  -0.22930
 Alpha  occ. eigenvalues --   -0.20894  -0.20715  -0.09854
 Alpha virt. eigenvalues --   -0.05635  -0.02079  -0.00055   0.00299   0.00301
 Alpha virt. eigenvalues --    0.02309   0.03027   0.03747   0.04625   0.05660
 Alpha virt. eigenvalues --    0.06525   0.07951   0.08048   0.09837   0.10262

  Beta  occ. eigenvalues --  -14.44892 -14.44892 -14.44569 -14.44568 -10.27233
  Beta  occ. eigenvalues --  -10.27233 -10.27209 -10.27208 -10.27150 -10.27150
  Beta  occ. eigenvalues --  -10.26984 -10.26984 -10.26084 -10.26084 -10.23572
  Beta  occ. eigenvalues --  -10.23572 -10.23502 -10.23502 -10.23003 -10.23003
  Beta  occ. eigenvalues --  -10.22882 -10.22882 -10.22468 -10.22452 -10.22383
  Beta  occ. eigenvalues --  -10.20098  -3.87313  -2.39098  -2.38322  -2.34917
  Beta  occ. eigenvalues --   -1.05789  -1.05692  -0.96154  -0.95657  -0.87891
  Beta  occ. eigenvalues --   -0.87506  -0.85591  -0.79837  -0.78708  -0.77550
  Beta  occ. eigenvalues --   -0.77433  -0.75579  -0.74819  -0.72940  -0.72728
  Beta  occ. eigenvalues --   -0.66613  -0.64848  -0.64070  -0.63677  -0.62809
  Beta  occ. eigenvalues --   -0.61114  -0.58717  -0.57899  -0.56120  -0.53773
  Beta  occ. eigenvalues --   -0.52985  -0.51859  -0.49386  -0.49166  -0.49097
  Beta  occ. eigenvalues --   -0.47980  -0.47291  -0.46985  -0.46854  -0.45708
  Beta  occ. eigenvalues --   -0.45706  -0.44994  -0.44688  -0.44286  -0.43681
  Beta  occ. eigenvalues --   -0.42254  -0.42009  -0.41607  -0.39060  -0.38651
  Beta  occ. eigenvalues --   -0.38385  -0.37639  -0.37232  -0.36832  -0.36282
  Beta  occ. eigenvalues --   -0.36108  -0.34750  -0.34143  -0.33019  -0.31340
  Beta  occ. eigenvalues --   -0.31097  -0.29623  -0.26285  -0.26016  -0.25254
  Beta  occ. eigenvalues --   -0.24850  -0.23941  -0.22136  -0.21000  -0.20628
  Beta  occ. eigenvalues --   -0.19989
  Beta virt. eigenvalues --   -0.04710  -0.04146  -0.01566  -0.00272   0.00156
  Beta virt. eigenvalues --    0.01257   0.01755   0.02467   0.03780   0.05730
  Beta virt. eigenvalues --    0.06025   0.06085   0.08155   0.09177   0.09242

 Mulliken charges and spin densities:
               1          2
     1  C   -0.310449  -0.165547
     2  C    0.334538   0.112388
     3  C   -0.186498  -0.081799
     4  C   -0.205758   0.145186
     5  C   -0.186498  -0.081798
     6  C    0.334538   0.112387
     7  H    0.174320   0.001368
     8  H    0.165603  -0.007652
     9  H    0.174320   0.001368
    10  C    0.310299  -0.003626
    11  C    0.374618   0.178766
    12  C    0.287236  -0.020438
    13  C   -0.190001   0.018584
    14  C   -0.210756   0.039751
    15  C   -0.188804   0.019671
    16  H    0.188752  -0.001154
    17  C   -0.187198  -0.003665
    18  H    0.173308  -0.002108
    19  H    0.169883  -0.001235
    20  H    0.168919  -0.000127
    21  C    0.310302  -0.003626
    22  C    0.374615   0.178774
    23  C    0.287233  -0.020439
    24  C   -0.190003   0.018584
    25  C   -0.210754   0.039753
    26  C   -0.188804   0.019673
    27  H    0.188752  -0.001153
    28  C   -0.187198  -0.003666
    29  H    0.173308  -0.002108
    30  H    0.169883  -0.001235
    31  H    0.168918  -0.000127
    32  N   -0.713587  -0.003818
    33  N   -0.609709   0.041618
    34  N   -0.713586  -0.003818
    35  N   -0.609712   0.041618
    36  C   -0.397037  -0.004589
    37  H    0.202351   0.002150
    38  H    0.202360   0.002155
    39  H    0.213569  -0.000456
    40  C   -0.397038  -0.004589
    41  H    0.202360   0.002156
    42  H    0.202350   0.002150
    43  H    0.213569  -0.000456
    44  Co   0.117484   1.441129
 Sum of Mulliken charges =  -0.00000   2.00000

 Dipole moment (field-independent basis, Debye):
    X=              0.0001    Y=             -3.3295    Z=             -0.0006  Tot=              3.3295
 Quadrupole moment (field-independent basis, Debye-Ang):
   XX=           -136.6502   YY=           -132.2171   ZZ=           -173.8499
   XY=             -0.0001   XZ=             -0.0004   YZ=              0.0012

 Normal termination of Gaussian 16 at Wed Jul 17 20:41:51 2024.
