 Gaussian 16, Revision C.01,
 Gaussian 16:  ES64L-G16RevC.01  3-Jul-2019

 ----------------------------------------------------------------------
 # pbe1pbe em=gd3bj genecp g09default scf=(xqc,maxcycle=64) force guess
 =read nosymm
 ----------------------------------------------------------------------

 ----------
 Title Card
 ----------
 Symbolic Z-matrix:
 Charge =  0 Multiplicity = 1

                          Input orientation:
 ---------------------------------------------------------------------
 Center     Atomic      Atomic             Coordinates (Angstroms)
 Number     Number       Type             X           Y           Z
 ---------------------------------------------------------------------
      1          6           0        0.000002    0.715209    0.000125
      2          6           0       -1.253225    1.354775    0.000035
      3          6           0       -1.247427    2.743944   -0.000008
      4          6           0       -0.000000    3.399360    0.000014
      5          6           0        1.247430    2.743944    0.000044
      6          6           0        1.253226    1.354777    0.000075
      7          1           0       -2.159255    3.327149   -0.000045
      8          1           0        0.000001    4.485770   -0.000011
      9          1           0        2.159257    3.327150    0.000050
     10          6           0        3.667067    0.581353   -0.000021
     11          6           0        1.887624   -0.898767    0.000081
     12          6           0        4.166031   -0.739467   -0.000092
     13          6           0        4.527699    1.664753   -0.000053
     14          6           0        5.527878   -1.002215   -0.000201
     15          6           0        5.905060    1.400063   -0.000170
     16          1           0        4.160355    2.683974    0.000013
     17          6           0        6.393228    0.100452   -0.000242
     18          1           0        5.906753   -2.018980   -0.000249
     19          1           0        6.595501    2.237301   -0.000195
     20          1           0        7.463763   -0.070709   -0.000324
     21          6           0       -3.667065    0.581348   -0.000032
     22          6           0       -1.887618   -0.898769    0.000039
     23          6           0       -4.166024   -0.739474   -0.000062
     24          6           0       -4.527696    1.664748   -0.000052
     25          6           0       -5.527873   -1.002223   -0.000102
     26          6           0       -5.905059    1.400054   -0.000097
     27          1           0       -4.160355    2.683969   -0.000022
     28          6           0       -6.393223    0.100444   -0.000122
     29          1           0       -5.906746   -2.018988   -0.000109
     30          1           0       -6.595500    2.237292   -0.000108
     31          1           0       -7.463759   -0.070720   -0.000151
     32          7           0       -2.283168    0.461187    0.000011
     33          7           0       -3.082828   -1.594136   -0.000032
     34          7           0        2.283173    0.461184    0.000087
     35          7           0        3.082834   -1.594133   -0.000040
     36          6           0        3.179251   -3.022312    0.000005
     37          1           0        3.704564   -3.382583   -0.893465
     38          1           0        3.704140   -3.382590    0.893728
     39          1           0        2.171096   -3.444165   -0.000249
     40          6           0       -3.179241   -3.022316    0.000043
     41          1           0       -3.704069   -3.382580    0.893808
     42          1           0       -3.704614   -3.382602   -0.893385
     43          1           0       -2.171086   -3.444167   -0.000276
     44         27           0        0.000002   -1.184228    0.000098
 ---------------------------------------------------------------------

 SCF Done:  E(UPBE1PBE) =  -1212.14191413     A.U. after   17 cycles

 Alpha  occ. eigenvalues --  -14.45629 -14.45629 -14.44889 -14.44888 -10.27904
 Alpha  occ. eigenvalues --  -10.27903 -10.27496 -10.27495 -10.27342 -10.27342
 Alpha  occ. eigenvalues --  -10.27254 -10.27253 -10.24809 -10.24809 -10.24155
 Alpha  occ. eigenvalues --  -10.24155 -10.23894 -10.23894 -10.23422 -10.23422
 Alpha  occ. eigenvalues --  -10.23362 -10.23362 -10.21351 -10.21346 -10.21151
 Alpha  occ. eigenvalues --  -10.18793  -3.83459  -2.35283  -2.35089  -2.31436
 Alpha  occ. eigenvalues --   -1.05988  -1.05910  -0.96858  -0.96495  -0.88206
 Alpha  occ. eigenvalues --   -0.87976  -0.84750  -0.80165  -0.78651  -0.77879
 Alpha  occ. eigenvalues --   -0.77857  -0.75686  -0.75081  -0.72722  -0.71814
 Alpha  occ. eigenvalues --   -0.66537  -0.65150  -0.64534  -0.63876  -0.62719
 Alpha  occ. eigenvalues --   -0.61355  -0.58816  -0.57321  -0.56486  -0.54045
 Alpha  occ. eigenvalues --   -0.53104  -0.51762  -0.49648  -0.49585  -0.48944
 Alpha  occ. eigenvalues --   -0.47967  -0.47620  -0.47427  -0.46708  -0.46082
 Alpha  occ. eigenvalues --   -0.45847  -0.45183  -0.45011  -0.44566  -0.44029
 Alpha  occ. eigenvalues --   -0.42181  -0.41946  -0.41056  -0.38468  -0.38451
 Alpha  occ. eigenvalues --   -0.38310  -0.37445  -0.36910  -0.36824  -0.36662
 Alpha  occ. eigenvalues --   -0.35838  -0.34470  -0.34408  -0.33716  -0.31386
 Alpha  occ. eigenvalues --   -0.29049  -0.26585  -0.25981  -0.24895  -0.24610
 Alpha  occ. eigenvalues --   -0.24505  -0.21321  -0.20928  -0.20590  -0.16162
 Alpha  occ. eigenvalues --   -0.15659  -0.15202
 Alpha virt. eigenvalues --   -0.04512  -0.02355  -0.00500   0.00110   0.00872
 Alpha virt. eigenvalues --    0.01389   0.02065   0.03519   0.05349   0.05913
 Alpha virt. eigenvalues --    0.06620   0.07442   0.09325   0.09379   0.10141

  Beta  occ. eigenvalues --  -14.45629 -14.45629 -14.44889 -14.44888 -10.27904
  Beta  occ. eigenvalues --  -10.27903 -10.27496 -10.27495 -10.27342 -10.27342
  Beta  occ. eigenvalues --  -10.27254 -10.27253 -10.24809 -10.24809 -10.24155
  Beta  occ. eigenvalues --  -10.24155 -10.23894 -10.23894 -10.23422 -10.23422
  Beta  occ. eigenvalues --  -10.23362 -10.23362 -10.21351 -10.21346 -10.21151
  Beta  occ. eigenvalues --  -10.18793  -3.83459  -2.35283  -2.35089  -2.31436
  Beta  occ. eigenvalues --   -1.05988  -1.05910  -0.96858  -0.96495  -0.88206
  Beta  occ. eigenvalues --   -0.87976  -0.84750  -0.80165  -0.78651  -0.77879
  Beta  occ. eigenvalues --   -0.77857  -0.75686  -0.75081  -0.72722  -0.71814
  Beta  occ. eigenvalues --   -0.66537  -0.65150  -0.64534  -0.63876  -0.62719
  Beta  occ. eigenvalues --   -0.61355  -0.58816  -0.57321  -0.56486  -0.54045
  Beta  occ. eigenvalues --   -0.53104  -0.51762  -0.49648  -0.49585  -0.48944
  Beta  occ. eigenvalues --   -0.47967  -0.47620  -0.47427  -0.46708  -0.46082
  Beta  occ. eigenvalues --   -0.45847  -0.45183  -0.45011  -0.44566  -0.44029
  Beta  occ. eigenvalues --   -0.42181  -0.41946  -0.41056  -0.38468  -0.38451
  Beta  occ. eigenvalues --   -0.38310  -0.37445  -0.36910  -0.36824  -0.36662
  Beta  occ. eigenvalues --   -0.35838  -0.34470  -0.34408  -0.33716  -0.31386
  Beta  occ. eigenvalues --   -0.29049  -0.26585  -0.25981  -0.24895  -0.24610
  Beta  occ. eigenvalues --   -0.24505  -0.21321  -0.20928  -0.20590  -0.16162
  Beta  occ. eigenvalues --   -0.15659  -0.15202
  Beta virt. eigenvalues --   -0.04512  -0.02355  -0.00500   0.00110   0.00872
  Beta virt. eigenvalues --    0.01389   0.02065   0.03519   0.05349   0.05913
  Beta virt. eigenvalues --    0.06620   0.07442   0.09325   0.09379   0.10141

 Mulliken charges and spin densities:
               1          2
     1  C   -0.208289  -0.000000
     2  C    0.318745   0.000000
     3  C   -0.196113  -0.000000
     4  C   -0.202673   0.000000
     5  C   -0.196115  -0.000000
     6  C    0.318745   0.000000
     7  H    0.160888  -0.000000
     8  H    0.155274  -0.000000
     9  H    0.160888  -0.000000
    10  C    0.313419   0.000000
    11  C    0.403024  -0.000000
    12  C    0.288839   0.000000
    13  C   -0.188572  -0.000000
    14  C   -0.209810  -0.000000
    15  C   -0.187356  -0.000000
    16  H    0.196462   0.000000
    17  C   -0.185311  -0.000000
    18  H    0.176906   0.000000
    19  H    0.173445   0.000000
    20  H    0.171233  -0.000000
    21  C    0.313417   0.000000
    22  C    0.403022  -0.000000
    23  C    0.288840   0.000000
    24  C   -0.188573  -0.000000
    25  C   -0.209811  -0.000000
    26  C   -0.187357  -0.000000
    27  H    0.196462   0.000000
    28  C   -0.185310  -0.000000
    29  H    0.176906   0.000000
    30  H    0.173445   0.000000
    31  H    0.171232  -0.000000
    32  N   -0.714593  -0.000000
    33  N   -0.595274  -0.000000
    34  N   -0.714594  -0.000000
    35  N   -0.595274  -0.000000
    36  C   -0.400747  -0.000000
    37  H    0.201867  -0.000000
    38  H    0.201876  -0.000000
    39  H    0.223618  -0.000000
    40  C   -0.400747  -0.000000
    41  H    0.201877  -0.000000
    42  H    0.201866  -0.000000
    43  H    0.223618  -0.000000
    44  Co  -0.049397   0.000000
 Sum of Mulliken charges =  -0.00000  -0.00000

 Dipole moment (field-independent basis, Debye):
    X=              0.0000    Y=             -3.7092    Z=             -0.0002  Tot=              3.7092
 Quadrupole moment (field-independent basis, Debye-Ang):
   XX=           -126.6886   YY=           -134.6437   ZZ=           -172.1201
   XY=              0.0000   XZ=             -0.0005   YZ=              0.0002

 Normal termination of Gaussian 16 at Wed Jul 17 20:44:00 2024.
