 Gaussian 16, Revision C.01,
 Gaussian 16:  ES64L-G16RevC.01  3-Jul-2019

 ----------------------------------------------------------------------
 # pbe1pbe em=gd3bj genecp g09default scf=(xqc,maxcycle=64) force guess
 =read nosymm
 ----------------------------------------------------------------------

 ----------
 Title Card
 ----------
 Symbolic Z-matrix:
 Charge =  0 Multiplicity = 3

                          Input orientation:
 ---------------------------------------------------------------------
 Center     Atomic      Atomic             Coordinates (Angstroms)
 Number     Number       Type             X           Y           Z
 ---------------------------------------------------------------------
      1          6           0        0.000002    0.715209    0.000125
      2          6           0       -1.253225    1.354775    0.000035
      3          6           0       -1.247427    2.743944   -0.000008
      4          6           0       -0.000000    3.399360    0.000014
      5          6           0        1.247430    2.743944    0.000044
      6          6           0        1.253226    1.354777    0.000075
      7          1           0       -2.159255    3.327149   -0.000045
      8          1           0        0.000001    4.485770   -0.000011
      9          1           0        2.159257    3.327150    0.000050
     10          6           0        3.667067    0.581353   -0.000021
     11          6           0        1.887624   -0.898767    0.000081
     12          6           0        4.166031   -0.739467   -0.000092
     13          6           0        4.527699    1.664753   -0.000053
     14          6           0        5.527878   -1.002215   -0.000201
     15          6           0        5.905060    1.400063   -0.000170
     16          1           0        4.160355    2.683974    0.000013
     17          6           0        6.393228    0.100452   -0.000242
     18          1           0        5.906753   -2.018980   -0.000249
     19          1           0        6.595501    2.237301   -0.000195
     20          1           0        7.463763   -0.070709   -0.000324
     21          6           0       -3.667065    0.581348   -0.000032
     22          6           0       -1.887618   -0.898769    0.000039
     23          6           0       -4.166024   -0.739474   -0.000062
     24          6           0       -4.527696    1.664748   -0.000052
     25          6           0       -5.527873   -1.002223   -0.000102
     26          6           0       -5.905059    1.400054   -0.000097
     27          1           0       -4.160355    2.683969   -0.000022
     28          6           0       -6.393223    0.100444   -0.000122
     29          1           0       -5.906746   -2.018988   -0.000109
     30          1           0       -6.595500    2.237292   -0.000108
     31          1           0       -7.463759   -0.070720   -0.000151
     32          7           0       -2.283168    0.461187    0.000011
     33          7           0       -3.082828   -1.594136   -0.000032
     34          7           0        2.283173    0.461184    0.000087
     35          7           0        3.082834   -1.594133   -0.000040
     36          6           0        3.179251   -3.022312    0.000005
     37          1           0        3.704564   -3.382583   -0.893465
     38          1           0        3.704140   -3.382590    0.893728
     39          1           0        2.171096   -3.444165   -0.000249
     40          6           0       -3.179241   -3.022316    0.000043
     41          1           0       -3.704069   -3.382580    0.893808
     42          1           0       -3.704614   -3.382602   -0.893385
     43          1           0       -2.171086   -3.444167   -0.000276
     44         27           0        0.000002   -1.184228    0.000098
 ---------------------------------------------------------------------

 SCF Done:  E(UPBE1PBE) =  -1212.13259826     A.U. after   35 cycles

 Alpha  occ. eigenvalues --  -14.45149 -14.45149 -14.44706 -14.44705 -10.27704
 Alpha  occ. eigenvalues --  -10.27703 -10.27282 -10.27282 -10.27280 -10.27279
 Alpha  occ. eigenvalues --  -10.27052 -10.27052 -10.26148 -10.26148 -10.23657
 Alpha  occ. eigenvalues --  -10.23657 -10.23506 -10.23506 -10.23013 -10.23013
 Alpha  occ. eigenvalues --  -10.22917 -10.22917 -10.22473 -10.22166 -10.22163
 Alpha  occ. eigenvalues --  -10.20213  -3.93682  -2.46267  -2.43705  -2.42912
 Alpha  occ. eigenvalues --   -1.05882  -1.05786  -0.96947  -0.96519  -0.88038
 Alpha  occ. eigenvalues --   -0.87679  -0.85402  -0.80302  -0.78801  -0.77667
 Alpha  occ. eigenvalues --   -0.77603  -0.75658  -0.74999  -0.73025  -0.72341
 Alpha  occ. eigenvalues --   -0.66723  -0.65321  -0.64387  -0.63934  -0.62820
 Alpha  occ. eigenvalues --   -0.61326  -0.58789  -0.57779  -0.56429  -0.53894
 Alpha  occ. eigenvalues --   -0.53013  -0.52026  -0.49734  -0.49646  -0.49114
 Alpha  occ. eigenvalues --   -0.48267  -0.47805  -0.47235  -0.46832  -0.45876
 Alpha  occ. eigenvalues --   -0.45739  -0.45264  -0.44869  -0.44807  -0.44151
 Alpha  occ. eigenvalues --   -0.42458  -0.41993  -0.41346  -0.38873  -0.38603
 Alpha  occ. eigenvalues --   -0.38603  -0.38224  -0.37253  -0.37246  -0.36898
 Alpha  occ. eigenvalues --   -0.36350  -0.34878  -0.34588  -0.33893  -0.32032
 Alpha  occ. eigenvalues --   -0.31677  -0.30388  -0.29097  -0.27066  -0.27035
 Alpha  occ. eigenvalues --   -0.26626  -0.25953  -0.24620  -0.23885  -0.22890
 Alpha  occ. eigenvalues --   -0.20724  -0.20380  -0.10202
 Alpha virt. eigenvalues --   -0.05934  -0.02476  -0.00081   0.00206   0.00296
 Alpha virt. eigenvalues --    0.02311   0.02915   0.03803   0.04350   0.05601
 Alpha virt. eigenvalues --    0.06319   0.08018   0.08055   0.09824   0.10256

  Beta  occ. eigenvalues --  -14.45009 -14.45009 -14.44679 -14.44679 -10.27473
  Beta  occ. eigenvalues --  -10.27472 -10.27289 -10.27288 -10.27285 -10.27285
  Beta  occ. eigenvalues --  -10.27088 -10.27087 -10.26005 -10.26004 -10.23600
  Beta  occ. eigenvalues --  -10.23600 -10.23483 -10.23483 -10.23018 -10.23018
  Beta  occ. eigenvalues --  -10.22886 -10.22886 -10.22326 -10.22269 -10.22252
  Beta  occ. eigenvalues --  -10.20565  -3.86922  -2.38448  -2.37918  -2.34730
  Beta  occ. eigenvalues --   -1.05665  -1.05568  -0.96737  -0.96292  -0.87985
  Beta  occ. eigenvalues --   -0.87604  -0.85388  -0.80208  -0.78751  -0.77604
  Beta  occ. eigenvalues --   -0.77530  -0.75501  -0.74791  -0.73026  -0.72408
  Beta  occ. eigenvalues --   -0.66746  -0.65068  -0.64138  -0.63938  -0.62754
  Beta  occ. eigenvalues --   -0.61224  -0.58754  -0.57742  -0.56395  -0.53844
  Beta  occ. eigenvalues --   -0.52979  -0.51963  -0.49254  -0.49184  -0.49097
  Beta  occ. eigenvalues --   -0.48262  -0.47779  -0.47207  -0.46757  -0.45836
  Beta  occ. eigenvalues --   -0.45731  -0.45219  -0.44792  -0.44470  -0.43829
  Beta  occ. eigenvalues --   -0.42463  -0.41960  -0.41345  -0.38616  -0.38601
  Beta  occ. eigenvalues --   -0.38477  -0.37392  -0.37226  -0.36751  -0.36472
  Beta  occ. eigenvalues --   -0.36285  -0.34900  -0.34011  -0.33217  -0.31374
  Beta  occ. eigenvalues --   -0.29762  -0.29584  -0.26402  -0.25882  -0.25191
  Beta  occ. eigenvalues --   -0.24457  -0.23901  -0.21987  -0.20566  -0.20382
  Beta  occ. eigenvalues --   -0.19882
  Beta virt. eigenvalues --   -0.04732  -0.04234  -0.01192  -0.00437   0.00085
  Beta virt. eigenvalues --    0.01244   0.01664   0.02470   0.03727   0.05605
  Beta virt. eigenvalues --    0.05915   0.05971   0.08001   0.09208   0.09317

 Mulliken charges and spin densities:
               1          2
     1  C   -0.291313  -0.207072
     2  C    0.365105   0.095165
     3  C   -0.197020  -0.073371
     4  C   -0.197854   0.120638
     5  C   -0.197022  -0.073370
     6  C    0.365105   0.095163
     7  H    0.170685  -0.000005
     8  H    0.163402  -0.006236
     9  H    0.170685  -0.000005
    10  C    0.313910  -0.001007
    11  C    0.367839   0.194158
    12  C    0.291837  -0.021687
    13  C   -0.193160   0.014394
    14  C   -0.215837   0.041857
    15  C   -0.189323   0.022607
    16  H    0.190657  -0.000948
    17  C   -0.184713  -0.007455
    18  H    0.173507  -0.002185
    19  H    0.170205  -0.001366
    20  H    0.168756   0.000060
    21  C    0.313908  -0.001006
    22  C    0.367835   0.194169
    23  C    0.291839  -0.021688
    24  C   -0.193161   0.014393
    25  C   -0.215838   0.041859
    26  C   -0.189324   0.022609
    27  H    0.190657  -0.000948
    28  C   -0.184712  -0.007457
    29  H    0.173507  -0.002185
    30  H    0.170205  -0.001366
    31  H    0.168756   0.000060
    32  N   -0.721529  -0.005341
    33  N   -0.600089   0.041384
    34  N   -0.721530  -0.005340
    35  N   -0.600090   0.041384
    36  C   -0.399169  -0.004735
    37  H    0.202109   0.002270
    38  H    0.202117   0.002276
    39  H    0.214440  -0.000536
    40  C   -0.399169  -0.004735
    41  H    0.202117   0.002276
    42  H    0.202109   0.002270
    43  H    0.214440  -0.000536
    44  Co   0.065126   1.501585
 Sum of Mulliken charges =  -0.00000   2.00000

 Dipole moment (field-independent basis, Debye):
    X=              0.0001    Y=             -3.5078    Z=             -0.0007  Tot=              3.5078
 Quadrupole moment (field-independent basis, Debye-Ang):
   XX=           -136.3933   YY=           -132.8076   ZZ=           -173.7477
   XY=             -0.0000   XZ=             -0.0004   YZ=              0.0017

 Normal termination of Gaussian 16 at Wed Jul 17 20:43:26 2024.
