 Gaussian 16, Revision C.01,
 Gaussian 16:  ES64L-G16RevC.01  3-Jul-2019

 ----------------------------------------------------------------------
 # pbe1pbe em=gd3bj genecp g09default scf=(xqc,maxcycle=64) force guess
 =read nosymm
 ----------------------------------------------------------------------

 ----------
 Title Card
 ----------
 Symbolic Z-matrix:
 Charge =  0 Multiplicity = 1

                          Input orientation:
 ---------------------------------------------------------------------
 Center     Atomic      Atomic             Coordinates (Angstroms)
 Number     Number       Type             X           Y           Z
 ---------------------------------------------------------------------
      1          6           0        0.000001    0.772929    0.000120
      2          6           0       -1.290355    1.351737    0.000040
      3          6           0       -1.256975    2.740164   -0.000009
      4          6           0       -0.000000    3.382460    0.000014
      5          6           0        1.256979    2.740163    0.000043
      6          6           0        1.290356    1.351739    0.000080
      7          1           0       -2.164117    3.328700   -0.000045
      8          1           0        0.000001    4.471521   -0.000011
      9          1           0        2.164118    3.328702    0.000049
     10          6           0        3.678301    0.586863   -0.000021
     11          6           0        1.892854   -0.902661    0.000090
     12          6           0        4.166251   -0.741062   -0.000085
     13          6           0        4.530857    1.664822   -0.000055
     14          6           0        5.527443   -1.002232   -0.000197
     15          6           0        5.914893    1.400060   -0.000171
     16          1           0        4.161929    2.683724    0.000012
     17          6           0        6.396002    0.104774   -0.000243
     18          1           0        5.906587   -2.019428   -0.000247
     19          1           0        6.600831    2.239416   -0.000195
     20          1           0        7.465608   -0.070354   -0.000326
     21          6           0       -3.678299    0.586858   -0.000034
     22          6           0       -1.892847   -0.902663    0.000064
     23          6           0       -4.166242   -0.741069   -0.000061
     24          6           0       -4.530853    1.664817   -0.000054
     25          6           0       -5.527438   -1.002240   -0.000100
     26          6           0       -5.914892    1.400051   -0.000099
     27          1           0       -4.161929    2.683718   -0.000022
     28          6           0       -6.395998    0.104765   -0.000123
     29          1           0       -5.906579   -2.019436   -0.000107
     30          1           0       -6.600830    2.239407   -0.000107
     31          1           0       -7.465603   -0.070365   -0.000152
     32          7           0       -2.292463    0.480506    0.000011
     33          7           0       -3.096498   -1.601343   -0.000039
     34          7           0        2.292468    0.480504    0.000079
     35          7           0        3.096504   -1.601340   -0.000040
     36          6           0        3.184624   -3.021251    0.000006
     37          1           0        3.705335   -3.388351   -0.894520
     38          1           0        3.704907   -3.388364    0.894788
     39          1           0        2.175989   -3.446392   -0.000255
     40          6           0       -3.184614   -3.021255    0.000045
     41          1           0       -3.704835   -3.388352    0.894868
     42          1           0       -3.705385   -3.388372   -0.894440
     43          1           0       -2.175978   -3.446394   -0.000282
     44         27           0        0.000001   -1.211397    0.000071
 ---------------------------------------------------------------------

 SCF Done:  E(UPBE1PBE) =  -1212.11611774     A.U. after   17 cycles

 Alpha  occ. eigenvalues --  -14.45801 -14.45801 -14.45033 -14.45033 -10.28334
 Alpha  occ. eigenvalues --  -10.28333 -10.27592 -10.27592 -10.27461 -10.27461
 Alpha  occ. eigenvalues --  -10.27337 -10.27337 -10.24903 -10.24903 -10.24168
 Alpha  occ. eigenvalues --  -10.24168 -10.23862 -10.23862 -10.23427 -10.23427
 Alpha  occ. eigenvalues --  -10.23366 -10.23366 -10.21216 -10.21210 -10.21056
 Alpha  occ. eigenvalues --  -10.19253  -3.83490  -2.35210  -2.35141  -2.31499
 Alpha  occ. eigenvalues --   -1.06013  -1.05937  -0.97537  -0.97218  -0.88302
 Alpha  occ. eigenvalues --   -0.88069  -0.84642  -0.80541  -0.78834  -0.77993
 Alpha  occ. eigenvalues --   -0.77903  -0.75644  -0.75118  -0.72876  -0.71487
 Alpha  occ. eigenvalues --   -0.66723  -0.65408  -0.64623  -0.64094  -0.62677
 Alpha  occ. eigenvalues --   -0.61520  -0.58822  -0.57245  -0.56724  -0.54166
 Alpha  occ. eigenvalues --   -0.53197  -0.51849  -0.49801  -0.49738  -0.49032
 Alpha  occ. eigenvalues --   -0.48396  -0.47967  -0.47455  -0.46665  -0.46250
 Alpha  occ. eigenvalues --   -0.45747  -0.45408  -0.45008  -0.44810  -0.44250
 Alpha  occ. eigenvalues --   -0.42316  -0.41897  -0.40798  -0.38591  -0.38387
 Alpha  occ. eigenvalues --   -0.38183  -0.37509  -0.37048  -0.36901  -0.36436
 Alpha  occ. eigenvalues --   -0.35747  -0.34430  -0.34377  -0.33926  -0.31386
 Alpha  occ. eigenvalues --   -0.29210  -0.26714  -0.25894  -0.24874  -0.24487
 Alpha  occ. eigenvalues --   -0.22877  -0.21142  -0.20522  -0.20390  -0.16284
 Alpha  occ. eigenvalues --   -0.15627  -0.15279
 Alpha virt. eigenvalues --   -0.04862  -0.02546  -0.00626   0.00000   0.00765
 Alpha virt. eigenvalues --    0.01315   0.02052   0.03378   0.05341   0.05851
 Alpha virt. eigenvalues --    0.06382   0.07279   0.09350   0.09382   0.10131

  Beta  occ. eigenvalues --  -14.45801 -14.45801 -14.45033 -14.45033 -10.28334
  Beta  occ. eigenvalues --  -10.28333 -10.27592 -10.27592 -10.27461 -10.27461
  Beta  occ. eigenvalues --  -10.27337 -10.27337 -10.24903 -10.24903 -10.24168
  Beta  occ. eigenvalues --  -10.24168 -10.23862 -10.23862 -10.23427 -10.23427
  Beta  occ. eigenvalues --  -10.23366 -10.23366 -10.21216 -10.21210 -10.21056
  Beta  occ. eigenvalues --  -10.19253  -3.83490  -2.35210  -2.35141  -2.31499
  Beta  occ. eigenvalues --   -1.06013  -1.05937  -0.97537  -0.97218  -0.88302
  Beta  occ. eigenvalues --   -0.88069  -0.84642  -0.80541  -0.78834  -0.77993
  Beta  occ. eigenvalues --   -0.77903  -0.75644  -0.75118  -0.72876  -0.71487
  Beta  occ. eigenvalues --   -0.66723  -0.65408  -0.64623  -0.64094  -0.62677
  Beta  occ. eigenvalues --   -0.61520  -0.58822  -0.57245  -0.56724  -0.54166
  Beta  occ. eigenvalues --   -0.53197  -0.51849  -0.49801  -0.49738  -0.49032
  Beta  occ. eigenvalues --   -0.48396  -0.47967  -0.47455  -0.46665  -0.46250
  Beta  occ. eigenvalues --   -0.45747  -0.45408  -0.45008  -0.44810  -0.44250
  Beta  occ. eigenvalues --   -0.42316  -0.41897  -0.40798  -0.38591  -0.38387
  Beta  occ. eigenvalues --   -0.38183  -0.37509  -0.37048  -0.36901  -0.36436
  Beta  occ. eigenvalues --   -0.35747  -0.34430  -0.34377  -0.33926  -0.31386
  Beta  occ. eigenvalues --   -0.29210  -0.26714  -0.25894  -0.24874  -0.24487
  Beta  occ. eigenvalues --   -0.22877  -0.21142  -0.20522  -0.20390  -0.16284
  Beta  occ. eigenvalues --   -0.15627  -0.15279
  Beta virt. eigenvalues --   -0.04862  -0.02546  -0.00626   0.00000   0.00765
  Beta virt. eigenvalues --    0.01315   0.02052   0.03378   0.05341   0.05851
  Beta virt. eigenvalues --    0.06382   0.07279   0.09350   0.09382   0.10131

 Mulliken charges and spin densities:
               1          2
     1  C   -0.202297  -0.000003
     2  C    0.344660   0.000000
     3  C   -0.209272  -0.000000
     4  C   -0.190624   0.000000
     5  C   -0.209274  -0.000000
     6  C    0.344661   0.000000
     7  H    0.157048  -0.000000
     8  H    0.153032  -0.000000
     9  H    0.157048  -0.000000
    10  C    0.315832   0.000000
    11  C    0.396671  -0.000001
    12  C    0.293746   0.000000
    13  C   -0.191799  -0.000000
    14  C   -0.214606  -0.000000
    15  C   -0.187763  -0.000000
    16  H    0.198107   0.000000
    17  C   -0.183246   0.000000
    18  H    0.176884   0.000000
    19  H    0.173888   0.000000
    20  H    0.170972  -0.000000
    21  C    0.315830   0.000000
    22  C    0.396668  -0.000001
    23  C    0.293747   0.000000
    24  C   -0.191801  -0.000000
    25  C   -0.214606  -0.000000
    26  C   -0.187763  -0.000000
    27  H    0.198107   0.000000
    28  C   -0.183245   0.000000
    29  H    0.176884   0.000000
    30  H    0.173888   0.000000
    31  H    0.170972  -0.000000
    32  N   -0.715366  -0.000000
    33  N   -0.585864  -0.000000
    34  N   -0.715368  -0.000000
    35  N   -0.585865  -0.000000
    36  C   -0.403362  -0.000000
    37  H    0.201956  -0.000000
    38  H    0.201965  -0.000000
    39  H    0.224592  -0.000000
    40  C   -0.403362  -0.000000
    41  H    0.201966  -0.000000
    42  H    0.201956  -0.000000
    43  H    0.224592  -0.000000
    44  Co  -0.090191   0.000006
 Sum of Mulliken charges =  -0.00000  -0.00000

 Dipole moment (field-independent basis, Debye):
    X=              0.0001    Y=             -3.8823    Z=             -0.0002  Tot=              3.8823
 Quadrupole moment (field-independent basis, Debye-Ang):
   XX=           -126.5390   YY=           -135.1735   ZZ=           -172.1149
   XY=              0.0000   XZ=             -0.0005   YZ=              0.0004

 Normal termination of Gaussian 16 at Wed Jul 17 20:45:26 2024.
