 Gaussian 16, Revision C.01,
 Gaussian 16:  ES64L-G16RevC.01  3-Jul-2019

 ----------------------------------------------------------------------
 # pbe1pbe em=gd3bj genecp g09default scf=(xqc,maxcycle=64) force guess
 =read nosymm
 ----------------------------------------------------------------------

 ----------
 Title Card
 ----------
 Symbolic Z-matrix:
 Charge =  0 Multiplicity = 3

                          Input orientation:
 ---------------------------------------------------------------------
 Center     Atomic      Atomic             Coordinates (Angstroms)
 Number     Number       Type             X           Y           Z
 ---------------------------------------------------------------------
      1          6           0        0.000001    0.772929    0.000120
      2          6           0       -1.290355    1.351737    0.000040
      3          6           0       -1.256975    2.740164   -0.000009
      4          6           0       -0.000000    3.382460    0.000014
      5          6           0        1.256979    2.740163    0.000043
      6          6           0        1.290356    1.351739    0.000080
      7          1           0       -2.164117    3.328700   -0.000045
      8          1           0        0.000001    4.471521   -0.000011
      9          1           0        2.164118    3.328702    0.000049
     10          6           0        3.678301    0.586863   -0.000021
     11          6           0        1.892854   -0.902661    0.000090
     12          6           0        4.166251   -0.741062   -0.000085
     13          6           0        4.530857    1.664822   -0.000055
     14          6           0        5.527443   -1.002232   -0.000197
     15          6           0        5.914893    1.400060   -0.000171
     16          1           0        4.161929    2.683724    0.000012
     17          6           0        6.396002    0.104774   -0.000243
     18          1           0        5.906587   -2.019428   -0.000247
     19          1           0        6.600831    2.239416   -0.000195
     20          1           0        7.465608   -0.070354   -0.000326
     21          6           0       -3.678299    0.586858   -0.000034
     22          6           0       -1.892847   -0.902663    0.000064
     23          6           0       -4.166242   -0.741069   -0.000061
     24          6           0       -4.530853    1.664817   -0.000054
     25          6           0       -5.527438   -1.002240   -0.000100
     26          6           0       -5.914892    1.400051   -0.000099
     27          1           0       -4.161929    2.683718   -0.000022
     28          6           0       -6.395998    0.104765   -0.000123
     29          1           0       -5.906579   -2.019436   -0.000107
     30          1           0       -6.600830    2.239407   -0.000107
     31          1           0       -7.465603   -0.070365   -0.000152
     32          7           0       -2.292463    0.480506    0.000011
     33          7           0       -3.096498   -1.601343   -0.000039
     34          7           0        2.292468    0.480504    0.000079
     35          7           0        3.096504   -1.601340   -0.000040
     36          6           0        3.184624   -3.021251    0.000006
     37          1           0        3.705335   -3.388351   -0.894520
     38          1           0        3.704907   -3.388364    0.894788
     39          1           0        2.175989   -3.446392   -0.000255
     40          6           0       -3.184614   -3.021255    0.000045
     41          1           0       -3.704835   -3.388352    0.894868
     42          1           0       -3.705385   -3.388372   -0.894440
     43          1           0       -2.175978   -3.446394   -0.000282
     44         27           0        0.000001   -1.211397    0.000071
 ---------------------------------------------------------------------

 SCF Done:  E(UPBE1PBE) =  -1212.11387121     A.U. after   28 cycles

 Alpha  occ. eigenvalues --  -14.45262 -14.45262 -14.44812 -14.44812 -10.28029
 Alpha  occ. eigenvalues --  -10.28028 -10.27364 -10.27364 -10.27318 -10.27317
 Alpha  occ. eigenvalues --  -10.27148 -10.27148 -10.26214 -10.26214 -10.23671
 Alpha  occ. eigenvalues --  -10.23671 -10.23492 -10.23492 -10.23024 -10.23024
 Alpha  occ. eigenvalues --  -10.22925 -10.22925 -10.22357 -10.22071 -10.22068
 Alpha  occ. eigenvalues --  -10.20753  -3.93546  -2.45863  -2.43654  -2.43026
 Alpha  occ. eigenvalues --   -1.05879  -1.05785  -0.97582  -0.97213  -0.88126
 Alpha  occ. eigenvalues --   -0.87774  -0.85260  -0.80635  -0.78923  -0.77725
 Alpha  occ. eigenvalues --   -0.77717  -0.75595  -0.74992  -0.73157  -0.71984
 Alpha  occ. eigenvalues --   -0.66903  -0.65586  -0.64465  -0.64116  -0.62766
 Alpha  occ. eigenvalues --   -0.61469  -0.58785  -0.57617  -0.56677  -0.54006
 Alpha  occ. eigenvalues --   -0.53076  -0.52125  -0.49853  -0.49766  -0.49112
 Alpha  occ. eigenvalues --   -0.48698  -0.48207  -0.47198  -0.46735  -0.45998
 Alpha  occ. eigenvalues --   -0.45712  -0.45381  -0.45091  -0.44869  -0.44361
 Alpha  occ. eigenvalues --   -0.42581  -0.41909  -0.41084  -0.38925  -0.38520
 Alpha  occ. eigenvalues --   -0.38243  -0.38201  -0.37274  -0.37112  -0.36974
 Alpha  occ. eigenvalues --   -0.36476  -0.34866  -0.34508  -0.34072  -0.31874
 Alpha  occ. eigenvalues --   -0.31465  -0.30505  -0.27547  -0.27012  -0.26709
 Alpha  occ. eigenvalues --   -0.26604  -0.25940  -0.24613  -0.23951  -0.22840
 Alpha  occ. eigenvalues --   -0.20556  -0.20065  -0.10543
 Alpha virt. eigenvalues --   -0.06145  -0.02883  -0.00121   0.00111   0.00280
 Alpha virt. eigenvalues --    0.02290   0.02801   0.03871   0.04044   0.05553
 Alpha virt. eigenvalues --    0.06159   0.07941   0.08205   0.09795   0.10245

  Beta  occ. eigenvalues --  -14.45123 -14.45123 -14.44791 -14.44790 -10.27780
  Beta  occ. eigenvalues --  -10.27780 -10.27363 -10.27362 -10.27327 -10.27327
  Beta  occ. eigenvalues --  -10.27185 -10.27185 -10.26088 -10.26088 -10.23612
  Beta  occ. eigenvalues --  -10.23612 -10.23475 -10.23475 -10.23033 -10.23033
  Beta  occ. eigenvalues --  -10.22890 -10.22890 -10.22234 -10.22172 -10.22157
  Beta  occ. eigenvalues --  -10.21223  -3.86268  -2.37507  -2.37226  -2.34361
  Beta  occ. eigenvalues --   -1.05663  -1.05565  -0.97386  -0.96991  -0.88091
  Beta  occ. eigenvalues --   -0.87701  -0.85313  -0.80556  -0.78887  -0.77671
  Beta  occ. eigenvalues --   -0.77651  -0.75439  -0.74776  -0.73167  -0.72137
  Beta  occ. eigenvalues --   -0.66936  -0.65438  -0.64199  -0.64093  -0.62725
  Beta  occ. eigenvalues --   -0.61370  -0.58762  -0.57651  -0.56653  -0.53972
  Beta  occ. eigenvalues --   -0.53052  -0.52086  -0.49368  -0.49295  -0.49018
  Beta  occ. eigenvalues --   -0.48699  -0.48347  -0.47171  -0.46672  -0.45962
  Beta  occ. eigenvalues --   -0.45726  -0.45341  -0.44873  -0.44712  -0.44033
  Beta  occ. eigenvalues --   -0.42593  -0.41876  -0.41091  -0.38610  -0.38543
  Beta  occ. eigenvalues --   -0.38303  -0.37248  -0.37119  -0.36796  -0.36716
  Beta  occ. eigenvalues --   -0.36229  -0.34935  -0.33922  -0.33380  -0.31452
  Beta  occ. eigenvalues --   -0.29866  -0.28082  -0.26527  -0.25814  -0.25045
  Beta  occ. eigenvalues --   -0.23860  -0.23848  -0.21832  -0.20206  -0.19974
  Beta  occ. eigenvalues --   -0.19674
  Beta virt. eigenvalues --   -0.04852  -0.04154  -0.00757  -0.00608   0.00018
  Beta virt. eigenvalues --    0.01265   0.01645   0.02463   0.03652   0.05518
  Beta virt. eigenvalues --    0.05797   0.05925   0.07875   0.09236   0.09373

 Mulliken charges and spin densities:
               1          2
     1  C   -0.277655  -0.277982
     2  C    0.391853   0.085987
     3  C   -0.210357  -0.069052
     4  C   -0.186442   0.103341
     5  C   -0.210359  -0.069051
     6  C    0.391854   0.085984
     7  H    0.167740  -0.001982
     8  H    0.161144  -0.005291
     9  H    0.167740  -0.001982
    10  C    0.315935   0.001681
    11  C    0.359731   0.206467
    12  C    0.296654  -0.022429
    13  C   -0.195979   0.010266
    14  C   -0.220513   0.043072
    15  C   -0.189904   0.025047
    16  H    0.192212  -0.000745
    17  C   -0.182445  -0.010625
    18  H    0.173572  -0.002219
    19  H    0.170623  -0.001469
    20  H    0.168555   0.000216
    21  C    0.315933   0.001682
    22  C    0.359725   0.206483
    23  C    0.296655  -0.022430
    24  C   -0.195980   0.010265
    25  C   -0.220514   0.043075
    26  C   -0.189905   0.025050
    27  H    0.192212  -0.000745
    28  C   -0.182443  -0.010627
    29  H    0.173572  -0.002220
    30  H    0.170622  -0.001470
    31  H    0.168554   0.000216
    32  N   -0.722717  -0.007774
    33  N   -0.590292   0.040455
    34  N   -0.722719  -0.007773
    35  N   -0.590293   0.040455
    36  C   -0.401832  -0.004786
    37  H    0.201796   0.002360
    38  H    0.201803   0.002365
    39  H    0.215857  -0.000642
    40  C   -0.401832  -0.004787
    41  H    0.201803   0.002365
    42  H    0.201796   0.002360
    43  H    0.215857  -0.000642
    44  Co   0.018381   1.587533
 Sum of Mulliken charges =  -0.00000   2.00000

 Dipole moment (field-independent basis, Debye):
    X=              0.0001    Y=             -3.6250    Z=             -0.0005  Tot=              3.6250
 Quadrupole moment (field-independent basis, Debye-Ang):
   XX=           -136.1863   YY=           -133.4270   ZZ=           -173.6435
   XY=             -0.0000   XZ=             -0.0004   YZ=              0.0011

 Normal termination of Gaussian 16 at Wed Jul 17 20:44:53 2024.
