 Gaussian 16, Revision C.01,
 Gaussian 16:  ES64L-G16RevC.01  3-Jul-2019

 ----------------------------------------------------------------------
 # pbe1pbe em=gd3bj genecp g09default scf=(xqc,maxcycle=64) force guess
 =read nosymm
 ----------------------------------------------------------------------

 ----------
 Title Card
 ----------
 Symbolic Z-matrix:
 Charge =  0 Multiplicity = 1

                          Input orientation:
 ---------------------------------------------------------------------
 Center     Atomic      Atomic             Coordinates (Angstroms)
 Number     Number       Type             X           Y           Z
 ---------------------------------------------------------------------
      1          6           0        0.000000    0.825610    0.000106
      2          6           0       -1.330791    1.349089    0.000047
      3          6           0       -1.266730    2.736757   -0.000010
      4          6           0        0.000000    3.364632    0.000014
      5          6           0        1.266732    2.736756    0.000042
      6          6           0        1.330793    1.349091    0.000085
      7          1           0       -2.168628    3.329793   -0.000045
      8          1           0        0.000000    4.457996   -0.000011
      9          1           0        2.168629    3.329795    0.000048
     10          6           0        3.688065    0.592935   -0.000020
     11          6           0        1.896797   -0.906315    0.000101
     12          6           0        4.166160   -0.744140   -0.000078
     13          6           0        4.533897    1.665236   -0.000058
     14          6           0        5.526716   -1.002193   -0.000193
     15          6           0        5.925339    1.400095   -0.000172
     16          1           0        4.163345    2.683289    0.000011
     17          6           0        6.398377    0.109168   -0.000244
     18          1           0        5.906317   -2.019888   -0.000245
     19          1           0        6.605641    2.241227   -0.000194
     20          1           0        7.467321   -0.069962   -0.000328
     21          6           0       -3.688064    0.592933   -0.000035
     22          6           0       -1.896788   -0.906316    0.000092
     23          6           0       -4.166147   -0.744145   -0.000061
     24          6           0       -4.533891    1.665227   -0.000056
     25          6           0       -5.526715   -1.002201   -0.000097
     26          6           0       -5.925341    1.400087   -0.000100
     27          1           0       -4.163345    2.683284   -0.000023
     28          6           0       -6.398370    0.109159   -0.000124
     29          1           0       -5.906308   -2.019896   -0.000106
     30          1           0       -6.605639    2.241217   -0.000106
     31          1           0       -7.467318   -0.069972   -0.000153
     32          7           0       -2.300948    0.501553    0.000011
     33          7           0       -3.112074   -1.608818   -0.000047
     34          7           0        2.300952    0.501551    0.000072
     35          7           0        3.112079   -1.608811   -0.000041
     36          6           0        3.189913   -3.019984    0.000009
     37          1           0        3.705964   -3.393979   -0.895561
     38          1           0        3.705532   -3.393998    0.895833
     39          1           0        2.180717   -3.448808   -0.000260
     40          6           0       -3.189902   -3.019986    0.000047
     41          1           0       -3.705461   -3.393984    0.895914
     42          1           0       -3.706015   -3.394001   -0.895480
     43          1           0       -2.180706   -3.448810   -0.000288
     44         27           0        0.000000   -1.236195    0.000046
 ---------------------------------------------------------------------

 SCF Done:  E(UPBE1PBE) =  -1212.07405783     A.U. after   16 cycles

 Alpha  occ. eigenvalues --  -14.45979 -14.45979 -14.45167 -14.45167 -10.28797
 Alpha  occ. eigenvalues --  -10.28797 -10.27692 -10.27692 -10.27590 -10.27590
 Alpha  occ. eigenvalues --  -10.27434 -10.27434 -10.25064 -10.25063 -10.24164
 Alpha  occ. eigenvalues --  -10.24163 -10.23832 -10.23832 -10.23424 -10.23424
 Alpha  occ. eigenvalues --  -10.23355 -10.23355 -10.21074 -10.21067 -10.20938
 Alpha  occ. eigenvalues --  -10.19966  -3.83614  -2.35414  -2.35091  -2.31685
 Alpha  occ. eigenvalues --   -1.06124  -1.06048  -0.98370  -0.98101  -0.88383
 Alpha  occ. eigenvalues --   -0.88156  -0.84502  -0.80913  -0.79082  -0.78124
 Alpha  occ. eigenvalues --   -0.77975  -0.75583  -0.75133  -0.73034  -0.71153
 Alpha  occ. eigenvalues --   -0.67006  -0.65774  -0.64706  -0.64191  -0.62639
 Alpha  occ. eigenvalues --   -0.61701  -0.58781  -0.57286  -0.56852  -0.54320
 Alpha  occ. eigenvalues --   -0.53359  -0.51898  -0.49986  -0.49923  -0.49321
 Alpha  occ. eigenvalues --   -0.49196  -0.47908  -0.47431  -0.46649  -0.46369
 Alpha  occ. eigenvalues --   -0.45665  -0.45577  -0.45138  -0.44833  -0.44555
 Alpha  occ. eigenvalues --   -0.42379  -0.41831  -0.40509  -0.38754  -0.38276
 Alpha  occ. eigenvalues --   -0.38081  -0.37571  -0.37358  -0.37093  -0.35960
 Alpha  occ. eigenvalues --   -0.35697  -0.34348  -0.34132  -0.34099  -0.31355
 Alpha  occ. eigenvalues --   -0.29414  -0.26840  -0.25846  -0.24831  -0.24436
 Alpha  occ. eigenvalues --   -0.21407  -0.20940  -0.20515  -0.19855  -0.16359
 Alpha  occ. eigenvalues --   -0.15661  -0.15489
 Alpha virt. eigenvalues --   -0.05319  -0.02785  -0.00806  -0.00092   0.00631
 Alpha virt. eigenvalues --    0.01231   0.02039   0.03210   0.05327   0.05775
 Alpha virt. eigenvalues --    0.06097   0.07116   0.09336   0.09512   0.10137

  Beta  occ. eigenvalues --  -14.45979 -14.45979 -14.45167 -14.45167 -10.28797
  Beta  occ. eigenvalues --  -10.28797 -10.27692 -10.27692 -10.27590 -10.27590
  Beta  occ. eigenvalues --  -10.27434 -10.27434 -10.25064 -10.25063 -10.24164
  Beta  occ. eigenvalues --  -10.24163 -10.23832 -10.23832 -10.23424 -10.23424
  Beta  occ. eigenvalues --  -10.23355 -10.23355 -10.21074 -10.21067 -10.20938
  Beta  occ. eigenvalues --  -10.19966  -3.83613  -2.35414  -2.35089  -2.31684
  Beta  occ. eigenvalues --   -1.06124  -1.06048  -0.98370  -0.98101  -0.88383
  Beta  occ. eigenvalues --   -0.88156  -0.84502  -0.80913  -0.79082  -0.78124
  Beta  occ. eigenvalues --   -0.77975  -0.75583  -0.75133  -0.73034  -0.71153
  Beta  occ. eigenvalues --   -0.67006  -0.65774  -0.64706  -0.64191  -0.62639
  Beta  occ. eigenvalues --   -0.61701  -0.58781  -0.57286  -0.56852  -0.54320
  Beta  occ. eigenvalues --   -0.53359  -0.51898  -0.49986  -0.49923  -0.49321
  Beta  occ. eigenvalues --   -0.49196  -0.47908  -0.47431  -0.46649  -0.46369
  Beta  occ. eigenvalues --   -0.45665  -0.45577  -0.45138  -0.44833  -0.44555
  Beta  occ. eigenvalues --   -0.42379  -0.41831  -0.40509  -0.38754  -0.38276
  Beta  occ. eigenvalues --   -0.38081  -0.37571  -0.37358  -0.37093  -0.35960
  Beta  occ. eigenvalues --   -0.35697  -0.34348  -0.34132  -0.34099  -0.31355
  Beta  occ. eigenvalues --   -0.29414  -0.26840  -0.25847  -0.24831  -0.24436
  Beta  occ. eigenvalues --   -0.21407  -0.20939  -0.20515  -0.19855  -0.16359
  Beta  occ. eigenvalues --   -0.15660  -0.15487
  Beta virt. eigenvalues --   -0.05319  -0.02785  -0.00806  -0.00092   0.00631
  Beta virt. eigenvalues --    0.01231   0.02039   0.03210   0.05327   0.05775
  Beta virt. eigenvalues --    0.06098   0.07116   0.09336   0.09512   0.10137

 Mulliken charges and spin densities:
               1          2
     1  C   -0.198942  -0.000040
     2  C    0.359605   0.000003
     3  C   -0.221523  -0.000003
     4  C   -0.178127   0.000002
     5  C   -0.221524  -0.000003
     6  C    0.359605   0.000003
     7  H    0.153118  -0.000001
     8  H    0.150334  -0.000000
     9  H    0.153118  -0.000001
    10  C    0.315984   0.000000
    11  C    0.386725  -0.000014
    12  C    0.300364   0.000001
    13  C   -0.195573  -0.000001
    14  C   -0.219702  -0.000002
    15  C   -0.187899  -0.000001
    16  H    0.199679   0.000000
    17  C   -0.181082   0.000000
    18  H    0.176691   0.000000
    19  H    0.174352   0.000000
    20  H    0.170630  -0.000000
    21  C    0.315991   0.000000
    22  C    0.386720  -0.000014
    23  C    0.300358   0.000001
    24  C   -0.195579  -0.000001
    25  C   -0.219698  -0.000002
    26  C   -0.187898  -0.000001
    27  H    0.199679   0.000000
    28  C   -0.181081   0.000000
    29  H    0.176690   0.000000
    30  H    0.174352   0.000000
    31  H    0.170629  -0.000000
    32  N   -0.704807  -0.000001
    33  N   -0.576814  -0.000001
    34  N   -0.704806  -0.000001
    35  N   -0.576817  -0.000001
    36  C   -0.406539  -0.000000
    37  H    0.202028  -0.000000
    38  H    0.202037  -0.000000
    39  H    0.225401  -0.000000
    40  C   -0.406540  -0.000000
    41  H    0.202036  -0.000000
    42  H    0.202027  -0.000000
    43  H    0.225400  -0.000000
    44  Co  -0.118601   0.000078
 Sum of Mulliken charges =  -0.00000  -0.00000

 Dipole moment (field-independent basis, Debye):
    X=              0.0001    Y=             -4.1067    Z=             -0.0003  Tot=              4.1067
 Quadrupole moment (field-independent basis, Debye-Ang):
   XX=           -126.5913   YY=           -135.7981   ZZ=           -172.1035
   XY=             -0.0001   XZ=             -0.0005   YZ=              0.0006

 Normal termination of Gaussian 16 at Wed Jul 17 20:46:53 2024.
