 Gaussian 16, Revision C.01,
 Gaussian 16:  ES64L-G16RevC.01  3-Jul-2019

 ----------------------------------------------------------------------
 # pbe1pbe em=gd3bj genecp g09default scf=(xqc,maxcycle=64) force guess
 =read nosymm
 ----------------------------------------------------------------------

 ----------
 Title Card
 ----------
 Symbolic Z-matrix:
 Charge =  0 Multiplicity = 3

                          Input orientation:
 ---------------------------------------------------------------------
 Center     Atomic      Atomic             Coordinates (Angstroms)
 Number     Number       Type             X           Y           Z
 ---------------------------------------------------------------------
      1          6           0        0.000000    0.825610    0.000106
      2          6           0       -1.330791    1.349089    0.000047
      3          6           0       -1.266730    2.736757   -0.000010
      4          6           0        0.000000    3.364632    0.000014
      5          6           0        1.266732    2.736756    0.000042
      6          6           0        1.330793    1.349091    0.000085
      7          1           0       -2.168628    3.329793   -0.000045
      8          1           0        0.000000    4.457996   -0.000011
      9          1           0        2.168629    3.329795    0.000048
     10          6           0        3.688065    0.592935   -0.000020
     11          6           0        1.896797   -0.906315    0.000101
     12          6           0        4.166160   -0.744140   -0.000078
     13          6           0        4.533897    1.665236   -0.000058
     14          6           0        5.526716   -1.002193   -0.000193
     15          6           0        5.925339    1.400095   -0.000172
     16          1           0        4.163345    2.683289    0.000011
     17          6           0        6.398377    0.109168   -0.000244
     18          1           0        5.906317   -2.019888   -0.000245
     19          1           0        6.605641    2.241227   -0.000194
     20          1           0        7.467321   -0.069962   -0.000328
     21          6           0       -3.688064    0.592933   -0.000035
     22          6           0       -1.896788   -0.906316    0.000092
     23          6           0       -4.166147   -0.744145   -0.000061
     24          6           0       -4.533891    1.665227   -0.000056
     25          6           0       -5.526715   -1.002201   -0.000097
     26          6           0       -5.925341    1.400087   -0.000100
     27          1           0       -4.163345    2.683284   -0.000023
     28          6           0       -6.398370    0.109159   -0.000124
     29          1           0       -5.906308   -2.019896   -0.000106
     30          1           0       -6.605639    2.241217   -0.000106
     31          1           0       -7.467318   -0.069972   -0.000153
     32          7           0       -2.300948    0.501553    0.000011
     33          7           0       -3.112074   -1.608818   -0.000047
     34          7           0        2.300952    0.501551    0.000072
     35          7           0        3.112079   -1.608811   -0.000041
     36          6           0        3.189913   -3.019984    0.000009
     37          1           0        3.705964   -3.393979   -0.895561
     38          1           0        3.705532   -3.393998    0.895833
     39          1           0        2.180717   -3.448808   -0.000260
     40          6           0       -3.189902   -3.019986    0.000047
     41          1           0       -3.705461   -3.393984    0.895914
     42          1           0       -3.706015   -3.394001   -0.895480
     43          1           0       -2.180706   -3.448810   -0.000288
     44         27           0        0.000000   -1.236195    0.000046
 ---------------------------------------------------------------------

 SCF Done:  E(UPBE1PBE) =  -1212.07969638     A.U. after   32 cycles

 Alpha  occ. eigenvalues --  -14.45373 -14.45373 -14.44918 -14.44918 -10.28391
 Alpha  occ. eigenvalues --  -10.28390 -10.27460 -10.27460 -10.27340 -10.27339
 Alpha  occ. eigenvalues --  -10.27263 -10.27263 -10.26430 -10.26429 -10.23674
 Alpha  occ. eigenvalues --  -10.23674 -10.23497 -10.23497 -10.23040 -10.23040
 Alpha  occ. eigenvalues --  -10.22925 -10.22925 -10.22307 -10.22011 -10.22008
 Alpha  occ. eigenvalues --  -10.21438  -3.93341  -2.45519  -2.43472  -2.43056
 Alpha  occ. eigenvalues --   -1.05981  -1.05886  -0.98375  -0.98071  -0.88204
 Alpha  occ. eigenvalues --   -0.87871  -0.85115  -0.80968  -0.79144  -0.77853
 Alpha  occ. eigenvalues --   -0.77808  -0.75537  -0.74971  -0.73306  -0.71602
 Alpha  occ. eigenvalues --   -0.67194  -0.65959  -0.64546  -0.64203  -0.62735
 Alpha  occ. eigenvalues --   -0.61632  -0.58738  -0.57497  -0.56916  -0.54161
 Alpha  occ. eigenvalues --   -0.53206  -0.52219  -0.49999  -0.49907  -0.49632
 Alpha  occ. eigenvalues --   -0.49270  -0.48023  -0.47170  -0.46645  -0.46101
 Alpha  occ. eigenvalues --   -0.45643  -0.45494  -0.45410  -0.44873  -0.44666
 Alpha  occ. eigenvalues --   -0.42626  -0.41786  -0.40815  -0.39018  -0.38392
 Alpha  occ. eigenvalues --   -0.38213  -0.38010  -0.37418  -0.37326  -0.36758
 Alpha  occ. eigenvalues --   -0.36418  -0.34648  -0.34435  -0.34208  -0.31852
 Alpha  occ. eigenvalues --   -0.31067  -0.30583  -0.27000  -0.26760  -0.26501
 Alpha  occ. eigenvalues --   -0.26046  -0.25942  -0.24578  -0.23893  -0.22745
 Alpha  occ. eigenvalues --   -0.20351  -0.19651  -0.10991
 Alpha virt. eigenvalues --   -0.06205  -0.03354  -0.00171   0.00033   0.00217
 Alpha virt. eigenvalues --    0.02254   0.02686   0.03764   0.03925   0.05513
 Alpha virt. eigenvalues --    0.06008   0.07872   0.08470   0.09746   0.10242

  Beta  occ. eigenvalues --  -14.45237 -14.45236 -14.44905 -14.44905 -10.28123
  Beta  occ. eigenvalues --  -10.28122 -10.27454 -10.27454 -10.27349 -10.27349
  Beta  occ. eigenvalues --  -10.27300 -10.27299 -10.26312 -10.26311 -10.23615
  Beta  occ. eigenvalues --  -10.23615 -10.23487 -10.23487 -10.23053 -10.23053
  Beta  occ. eigenvalues --  -10.22888 -10.22888 -10.22198 -10.22116 -10.22105
  Beta  occ. eigenvalues --  -10.22071  -3.85386  -2.36306  -2.36275  -2.33847
  Beta  occ. eigenvalues --   -1.05770  -1.05668  -0.98190  -0.97855  -0.88190
  Beta  occ. eigenvalues --   -0.87802  -0.85252  -0.80899  -0.79121  -0.77794
  Beta  occ. eigenvalues --   -0.77764  -0.75388  -0.74745  -0.73327  -0.71846
  Beta  occ. eigenvalues --   -0.67232  -0.65966  -0.64264  -0.64156  -0.62719
  Beta  occ. eigenvalues --   -0.61545  -0.58722  -0.57620  -0.56897  -0.54148
  Beta  occ. eigenvalues --   -0.53195  -0.52209  -0.49656  -0.49507  -0.49428
  Beta  occ. eigenvalues --   -0.49156  -0.48260  -0.47145  -0.46601  -0.46066
  Beta  occ. eigenvalues --   -0.45698  -0.45455  -0.45048  -0.44930  -0.44332
  Beta  occ. eigenvalues --   -0.42644  -0.41751  -0.40828  -0.38762  -0.38442
  Beta  occ. eigenvalues --   -0.38089  -0.37291  -0.37056  -0.36990  -0.36797
  Beta  occ. eigenvalues --   -0.36040  -0.34781  -0.33836  -0.33505  -0.31544
  Beta  occ. eigenvalues --   -0.29966  -0.26664  -0.26622  -0.25792  -0.24827
  Beta  occ. eigenvalues --   -0.23762  -0.23124  -0.21624  -0.19822  -0.19541
  Beta  occ. eigenvalues --   -0.19325
  Beta virt. eigenvalues --   -0.05145  -0.03928  -0.00800  -0.00403  -0.00045
  Beta virt. eigenvalues --    0.01317   0.01733   0.02451   0.03570   0.05498
  Beta virt. eigenvalues --    0.05708   0.05883   0.07755   0.09360   0.09387

 Mulliken charges and spin densities:
               1          2
     1  C   -0.271558  -0.378231
     2  C    0.408855   0.085450
     3  C   -0.223308  -0.069784
     4  C   -0.173925   0.094494
     5  C   -0.223309  -0.069783
     6  C    0.408855   0.085448
     7  H    0.165153  -0.004679
     8  H    0.159048  -0.005032
     9  H    0.165153  -0.004679
    10  C    0.315597   0.005077
    11  C    0.348536   0.219454
    12  C    0.303269  -0.022608
    13  C   -0.199256   0.005434
    14  C   -0.225380   0.043303
    15  C   -0.190197   0.027175
    16  H    0.193601  -0.000500
    17  C   -0.180053  -0.013508
    18  H    0.173607  -0.002200
    19  H    0.171096  -0.001551
    20  H    0.168338   0.000362
    21  C    0.315603   0.005079
    22  C    0.348527   0.219475
    23  C    0.303263  -0.022610
    24  C   -0.199262   0.005433
    25  C   -0.225377   0.043306
    26  C   -0.190198   0.027179
    27  H    0.193600  -0.000500
    28  C   -0.180053  -0.013510
    29  H    0.173606  -0.002200
    30  H    0.171096  -0.001551
    31  H    0.168336   0.000362
    32  N   -0.712936  -0.011714
    33  N   -0.580872   0.039003
    34  N   -0.712936  -0.011713
    35  N   -0.580876   0.039004
    36  C   -0.405100  -0.004741
    37  H    0.201325   0.002435
    38  H    0.201331   0.002439
    39  H    0.217737  -0.000761
    40  C   -0.405101  -0.004741
    41  H    0.201330   0.002439
    42  H    0.201324   0.002435
    43  H    0.217736  -0.000761
    44  Co  -0.016226   1.692573
 Sum of Mulliken charges =  -0.00000   2.00000

 Dipole moment (field-independent basis, Debye):
    X=              0.0002    Y=             -3.6942    Z=             -0.0001  Tot=              3.6942
 Quadrupole moment (field-independent basis, Debye-Ang):
   XX=           -135.9769   YY=           -134.1147   ZZ=           -173.5360
   XY=             -0.0002   XZ=             -0.0004   YZ=              0.0001

 Normal termination of Gaussian 16 at Wed Jul 17 20:46:21 2024.
