 Gaussian 16, Revision C.01,
 Gaussian 16:  ES64L-G16RevC.01  3-Jul-2019

 ----------------------------------------------------------------------
 # pbe1pbe em=gd3bj genecp g09default scf=(xqc,maxcycle=64) force guess
 =read nosymm
 ----------------------------------------------------------------------

 ----------
 Title Card
 ----------
 Symbolic Z-matrix:
 Charge =  0 Multiplicity = 1

                          Input orientation:
 ---------------------------------------------------------------------
 Center     Atomic      Atomic             Coordinates (Angstroms)
 Number     Number       Type             X           Y           Z
 ---------------------------------------------------------------------
      1          6           0       -0.000001    0.759658    0.000081
      2          6           0       -1.299313    1.348720    0.000051
      3          6           0       -1.256571    2.741517   -0.000007
      4          6           0        0.000003    3.374912    0.000013
      5          6           0        1.256569    2.741518    0.000045
      6          6           0        1.299320    1.348719    0.000091
      7          1           0       -2.164654    3.328621   -0.000046
      8          1           0        0.000001    4.473412   -0.000011
      9          1           0        2.164657    3.328623    0.000048
     10          6           0        3.674166    0.589174   -0.000018
     11          6           0        1.890249   -0.902627    0.000103
     12          6           0        4.161305   -0.744306   -0.000085
     13          6           0        4.528290    1.665054   -0.000055
     14          6           0        5.526810   -1.001860   -0.000197
     15          6           0        5.917649    1.400085   -0.000171
     16          1           0        4.161861    2.683271    0.000012
     17          6           0        6.394906    0.105256   -0.000243
     18          1           0        5.906514   -2.019916   -0.000247
     19          1           0        6.599854    2.238628   -0.000195
     20          1           0        7.466035   -0.070242   -0.000326
     21          6           0       -3.674166    0.589176   -0.000032
     22          6           0       -1.890238   -0.902626    0.000078
     23          6           0       -4.161292   -0.744308   -0.000062
     24          6           0       -4.528283    1.665040   -0.000054
     25          6           0       -5.526811   -1.001868   -0.000100
     26          6           0       -5.917652    1.400079   -0.000099
     27          1           0       -4.161860    2.683267   -0.000022
     28          6           0       -6.394895    0.105246   -0.000122
     29          1           0       -5.906506   -2.019923   -0.000107
     30          1           0       -6.599852    2.238618   -0.000107
     31          1           0       -7.466033   -0.070253   -0.000152
     32          7           0       -2.291339    0.489514    0.000008
     33          7           0       -3.101359   -1.603978   -0.000047
     34          7           0        2.291339    0.489517    0.000076
     35          7           0        3.101363   -1.603964   -0.000048
     36          6           0        3.184348   -3.018795    0.000008
     37          1           0        3.704968   -3.388194   -0.894504
     38          1           0        3.704541   -3.388207    0.894771
     39          1           0        2.175880   -3.447353   -0.000253
     40          6           0       -3.184336   -3.018793    0.000045
     41          1           0       -3.704471   -3.388195    0.894852
     42          1           0       -3.705019   -3.388214   -0.894424
     43          1           0       -2.175869   -3.447355   -0.000280
     44         27           0       -0.000000   -1.202572    0.000071
 ---------------------------------------------------------------------

 SCF Done:  E(UPBE1PBE) =  -1212.10907302     A.U. after   20 cycles

 Alpha  occ. eigenvalues --  -14.45909 -14.45908 -14.45093 -14.45093 -10.28514
 Alpha  occ. eigenvalues --  -10.28513 -10.27617 -10.27616 -10.27526 -10.27526
 Alpha  occ. eigenvalues --  -10.27403 -10.27403 -10.24899 -10.24899 -10.24168
 Alpha  occ. eigenvalues --  -10.24168 -10.23848 -10.23848 -10.23406 -10.23406
 Alpha  occ. eigenvalues --  -10.23338 -10.23338 -10.21132 -10.21123 -10.21009
 Alpha  occ. eigenvalues --  -10.19486  -3.83740  -2.35454  -2.35367  -2.31782
 Alpha  occ. eigenvalues --   -1.06119  -1.06041  -0.97947  -0.97651  -0.88216
 Alpha  occ. eigenvalues --   -0.87982  -0.84459  -0.80671  -0.78941  -0.77967
 Alpha  occ. eigenvalues --   -0.77890  -0.75554  -0.75084  -0.72854  -0.71432
 Alpha  occ. eigenvalues --   -0.66879  -0.65594  -0.64668  -0.64029  -0.62632
 Alpha  occ. eigenvalues --   -0.61580  -0.58742  -0.57201  -0.56714  -0.54226
 Alpha  occ. eigenvalues --   -0.53293  -0.51806  -0.49914  -0.49851  -0.49102
 Alpha  occ. eigenvalues --   -0.48553  -0.47991  -0.47425  -0.46649  -0.46231
 Alpha  occ. eigenvalues --   -0.45685  -0.45392  -0.44981  -0.44938  -0.44367
 Alpha  occ. eigenvalues --   -0.42328  -0.41881  -0.40648  -0.38580  -0.38336
 Alpha  occ. eigenvalues --   -0.38141  -0.37527  -0.37112  -0.36959  -0.36226
 Alpha  occ. eigenvalues --   -0.35802  -0.34317  -0.34309  -0.33980  -0.31379
 Alpha  occ. eigenvalues --   -0.29321  -0.26701  -0.25926  -0.24799  -0.24379
 Alpha  occ. eigenvalues --   -0.23249  -0.21019  -0.20753  -0.20405  -0.16262
 Alpha  occ. eigenvalues --   -0.15770  -0.15553
 Alpha virt. eigenvalues --   -0.05153  -0.02635  -0.00719  -0.00042   0.00729
 Alpha virt. eigenvalues --    0.01286   0.02060   0.03298   0.05412   0.05803
 Alpha virt. eigenvalues --    0.06379   0.07231   0.09400   0.09422   0.10192

  Beta  occ. eigenvalues --  -14.45909 -14.45908 -14.45093 -14.45093 -10.28514
  Beta  occ. eigenvalues --  -10.28513 -10.27617 -10.27616 -10.27526 -10.27526
  Beta  occ. eigenvalues --  -10.27403 -10.27403 -10.24899 -10.24899 -10.24168
  Beta  occ. eigenvalues --  -10.24168 -10.23848 -10.23848 -10.23406 -10.23406
  Beta  occ. eigenvalues --  -10.23338 -10.23338 -10.21132 -10.21123 -10.21009
  Beta  occ. eigenvalues --  -10.19486  -3.83740  -2.35454  -2.35366  -2.31782
  Beta  occ. eigenvalues --   -1.06119  -1.06041  -0.97947  -0.97651  -0.88216
  Beta  occ. eigenvalues --   -0.87982  -0.84459  -0.80671  -0.78941  -0.77967
  Beta  occ. eigenvalues --   -0.77890  -0.75554  -0.75084  -0.72854  -0.71432
  Beta  occ. eigenvalues --   -0.66879  -0.65594  -0.64668  -0.64029  -0.62632
  Beta  occ. eigenvalues --   -0.61580  -0.58742  -0.57201  -0.56714  -0.54226
  Beta  occ. eigenvalues --   -0.53293  -0.51806  -0.49914  -0.49851  -0.49102
  Beta  occ. eigenvalues --   -0.48553  -0.47991  -0.47425  -0.46649  -0.46231
  Beta  occ. eigenvalues --   -0.45685  -0.45392  -0.44981  -0.44938  -0.44367
  Beta  occ. eigenvalues --   -0.42328  -0.41881  -0.40648  -0.38580  -0.38336
  Beta  occ. eigenvalues --   -0.38141  -0.37527  -0.37112  -0.36959  -0.36226
  Beta  occ. eigenvalues --   -0.35802  -0.34317  -0.34309  -0.33980  -0.31379
  Beta  occ. eigenvalues --   -0.29321  -0.26701  -0.25926  -0.24799  -0.24379
  Beta  occ. eigenvalues --   -0.23249  -0.21019  -0.20753  -0.20405  -0.16262
  Beta  occ. eigenvalues --   -0.15770  -0.15553
  Beta virt. eigenvalues --   -0.05153  -0.02635  -0.00719  -0.00042   0.00729
  Beta virt. eigenvalues --    0.01286   0.02060   0.03298   0.05412   0.05803
  Beta virt. eigenvalues --    0.06379   0.07231   0.09400   0.09422   0.10192

 Mulliken charges and spin densities:
               1          2
     1  C   -0.209235  -0.000001
     2  C    0.338492  -0.000000
     3  C   -0.206249  -0.000000
     4  C   -0.191227  -0.000000
     5  C   -0.206247  -0.000000
     6  C    0.338488  -0.000000
     7  H    0.156759  -0.000000
     8  H    0.151600   0.000000
     9  H    0.156758  -0.000000
    10  C    0.315111  -0.000000
    11  C    0.387744  -0.000002
    12  C    0.295416   0.000000
    13  C   -0.194398  -0.000000
    14  C   -0.214949  -0.000000
    15  C   -0.187151  -0.000000
    16  H    0.197991   0.000000
    17  C   -0.182518   0.000000
    18  H    0.176426   0.000000
    19  H    0.173979   0.000000
    20  H    0.170669  -0.000000
    21  C    0.315132  -0.000000
    22  C    0.387738  -0.000002
    23  C    0.295398   0.000000
    24  C   -0.194409  -0.000000
    25  C   -0.214941  -0.000000
    26  C   -0.187148  -0.000000
    27  H    0.197991   0.000000
    28  C   -0.182520   0.000000
    29  H    0.176426   0.000000
    30  H    0.173980   0.000000
    31  H    0.170667  -0.000000
    32  N   -0.706753   0.000000
    33  N   -0.582734  -0.000000
    34  N   -0.706744   0.000000
    35  N   -0.582742  -0.000000
    36  C   -0.405261   0.000000
    37  H    0.202008  -0.000000
    38  H    0.202017  -0.000000
    39  H    0.224404   0.000000
    40  C   -0.405263   0.000000
    41  H    0.202015  -0.000000
    42  H    0.202005  -0.000000
    43  H    0.224404   0.000000
    44  Co  -0.073126   0.000006
 Sum of Mulliken charges =  -0.00000   0.00000

 Dipole moment (field-independent basis, Debye):
    X=              0.0002    Y=             -4.0232    Z=             -0.0002  Tot=              4.0232
 Quadrupole moment (field-independent basis, Debye-Ang):
   XX=           -127.1845   YY=           -135.3492   ZZ=           -172.1231
   XY=             -0.0004   XZ=             -0.0005   YZ=              0.0004

 Normal termination of Gaussian 16 at Wed Jul 17 20:48:22 2024.
