 Gaussian 16, Revision C.01,
 Gaussian 16:  ES64L-G16RevC.01  3-Jul-2019

 ----------------------------------------------------------------------
 # pbe1pbe em=gd3bj genecp g09default scf=(xqc,maxcycle=64) force guess
 =read nosymm
 ----------------------------------------------------------------------

 ----------
 Title Card
 ----------
 Symbolic Z-matrix:
 Charge =  0 Multiplicity = 3

                          Input orientation:
 ---------------------------------------------------------------------
 Center     Atomic      Atomic             Coordinates (Angstroms)
 Number     Number       Type             X           Y           Z
 ---------------------------------------------------------------------
      1          6           0       -0.000001    0.759658    0.000081
      2          6           0       -1.299313    1.348720    0.000051
      3          6           0       -1.256571    2.741517   -0.000007
      4          6           0        0.000003    3.374912    0.000013
      5          6           0        1.256569    2.741518    0.000045
      6          6           0        1.299320    1.348719    0.000091
      7          1           0       -2.164654    3.328621   -0.000046
      8          1           0        0.000001    4.473412   -0.000011
      9          1           0        2.164657    3.328623    0.000048
     10          6           0        3.674166    0.589174   -0.000018
     11          6           0        1.890249   -0.902627    0.000103
     12          6           0        4.161305   -0.744306   -0.000085
     13          6           0        4.528290    1.665054   -0.000055
     14          6           0        5.526810   -1.001860   -0.000197
     15          6           0        5.917649    1.400085   -0.000171
     16          1           0        4.161861    2.683271    0.000012
     17          6           0        6.394906    0.105256   -0.000243
     18          1           0        5.906514   -2.019916   -0.000247
     19          1           0        6.599854    2.238628   -0.000195
     20          1           0        7.466035   -0.070242   -0.000326
     21          6           0       -3.674166    0.589176   -0.000032
     22          6           0       -1.890238   -0.902626    0.000078
     23          6           0       -4.161292   -0.744308   -0.000062
     24          6           0       -4.528283    1.665040   -0.000054
     25          6           0       -5.526811   -1.001868   -0.000100
     26          6           0       -5.917652    1.400079   -0.000099
     27          1           0       -4.161860    2.683267   -0.000022
     28          6           0       -6.394895    0.105246   -0.000122
     29          1           0       -5.906506   -2.019923   -0.000107
     30          1           0       -6.599852    2.238618   -0.000107
     31          1           0       -7.466033   -0.070253   -0.000152
     32          7           0       -2.291339    0.489514    0.000008
     33          7           0       -3.101359   -1.603978   -0.000047
     34          7           0        2.291339    0.489517    0.000076
     35          7           0        3.101363   -1.603964   -0.000048
     36          6           0        3.184348   -3.018795    0.000008
     37          1           0        3.704968   -3.388194   -0.894504
     38          1           0        3.704541   -3.388207    0.894771
     39          1           0        2.175880   -3.447353   -0.000253
     40          6           0       -3.184336   -3.018793    0.000045
     41          1           0       -3.704471   -3.388195    0.894852
     42          1           0       -3.705019   -3.388214   -0.894424
     43          1           0       -2.175869   -3.447355   -0.000280
     44         27           0       -0.000000   -1.202572    0.000071
 ---------------------------------------------------------------------

 SCF Done:  E(UPBE1PBE) =  -1212.10772093     A.U. after   29 cycles

 Alpha  occ. eigenvalues --  -14.45363 -14.45362 -14.44841 -14.44841 -10.28211
 Alpha  occ. eigenvalues --  -10.28211 -10.27386 -10.27385 -10.27372 -10.27371
 Alpha  occ. eigenvalues --  -10.27214 -10.27214 -10.26228 -10.26228 -10.23682
 Alpha  occ. eigenvalues --  -10.23681 -10.23491 -10.23491 -10.23013 -10.23013
 Alpha  occ. eigenvalues --  -10.22900 -10.22900 -10.22369 -10.21996 -10.21993
 Alpha  occ. eigenvalues --  -10.20825  -3.93617  -2.46046  -2.43690  -2.43005
 Alpha  occ. eigenvalues --   -1.05986  -1.05891  -0.97978  -0.97638  -0.88041
 Alpha  occ. eigenvalues --   -0.87693  -0.85073  -0.80740  -0.79053  -0.77715
 Alpha  occ. eigenvalues --   -0.77698  -0.75510  -0.74955  -0.73136  -0.71894
 Alpha  occ. eigenvalues --   -0.67068  -0.65789  -0.64521  -0.64053  -0.62736
 Alpha  occ. eigenvalues --   -0.61523  -0.58687  -0.57544  -0.56694  -0.54056
 Alpha  occ. eigenvalues --   -0.53164  -0.52077  -0.49961  -0.49874  -0.49193
 Alpha  occ. eigenvalues --   -0.48881  -0.48239  -0.47176  -0.46731  -0.45976
 Alpha  occ. eigenvalues --   -0.45657  -0.45365  -0.45219  -0.44848  -0.44485
 Alpha  occ. eigenvalues --   -0.42575  -0.41883  -0.40955  -0.38891  -0.38470
 Alpha  occ. eigenvalues --   -0.38365  -0.38119  -0.37297  -0.37175  -0.36830
 Alpha  occ. eigenvalues --   -0.36408  -0.34752  -0.34434  -0.34121  -0.31960
 Alpha  occ. eigenvalues --   -0.31535  -0.30543  -0.27827  -0.27053  -0.26774
 Alpha  occ. eigenvalues --   -0.26678  -0.25957  -0.24520  -0.23938  -0.22745
 Alpha  occ. eigenvalues --   -0.20393  -0.19827  -0.10850
 Alpha virt. eigenvalues --   -0.06128  -0.03102  -0.00135   0.00127   0.00265
 Alpha virt. eigenvalues --    0.02289   0.02739   0.03961   0.04127   0.05521
 Alpha virt. eigenvalues --    0.06127   0.07994   0.08334   0.09850   0.10303

  Beta  occ. eigenvalues --  -14.45222 -14.45222 -14.44822 -14.44821 -10.27946
  Beta  occ. eigenvalues --  -10.27945 -10.27382 -10.27381 -10.27381 -10.27381
  Beta  occ. eigenvalues --  -10.27251 -10.27250 -10.26096 -10.26096 -10.23623
  Beta  occ. eigenvalues --  -10.23622 -10.23477 -10.23477 -10.23024 -10.23024
  Beta  occ. eigenvalues --  -10.22863 -10.22863 -10.22236 -10.22100 -10.22093
  Beta  occ. eigenvalues --  -10.21268  -3.86445  -2.37684  -2.37448  -2.34504
  Beta  occ. eigenvalues --   -1.05765  -1.05666  -0.97771  -0.97411  -0.88000
  Beta  occ. eigenvalues --   -0.87620  -0.85108  -0.80652  -0.79013  -0.77661
  Beta  occ. eigenvalues --   -0.77633  -0.75342  -0.74726  -0.73144  -0.72017
  Beta  occ. eigenvalues --   -0.67100  -0.65642  -0.64243  -0.64017  -0.62686
  Beta  occ. eigenvalues --   -0.61427  -0.58656  -0.57571  -0.56663  -0.54019
  Beta  occ. eigenvalues --   -0.53138  -0.52028  -0.49467  -0.49396  -0.49073
  Beta  occ. eigenvalues --   -0.48879  -0.48397  -0.47148  -0.46649  -0.45939
  Beta  occ. eigenvalues --   -0.45671  -0.45317  -0.44853  -0.44822  -0.44141
  Beta  occ. eigenvalues --   -0.42579  -0.41849  -0.40957  -0.38563  -0.38493
  Beta  occ. eigenvalues --   -0.38182  -0.37266  -0.37115  -0.36840  -0.36782
  Beta  occ. eigenvalues --   -0.36157  -0.34820  -0.33837  -0.33420  -0.31497
  Beta  occ. eigenvalues --   -0.29908  -0.28247  -0.26510  -0.25833  -0.25005
  Beta  occ. eigenvalues --   -0.24048  -0.23728  -0.21747  -0.20094  -0.20021
  Beta  occ. eigenvalues --   -0.19587
  Beta virt. eigenvalues --   -0.05128  -0.04225  -0.00916  -0.00726   0.00008
  Beta virt. eigenvalues --    0.01232   0.01617   0.02465   0.03608   0.05539
  Beta virt. eigenvalues --    0.05886   0.05901   0.07812   0.09328   0.09388

 Mulliken charges and spin densities:
               1          2
     1  C   -0.287930  -0.263231
     2  C    0.386593   0.089826
     3  C   -0.207516  -0.072244
     4  C   -0.186198   0.105875
     5  C   -0.207513  -0.072243
     6  C    0.386590   0.089828
     7  H    0.167334  -0.001443
     8  H    0.160091  -0.005436
     9  H    0.167334  -0.001443
    10  C    0.315048   0.003708
    11  C    0.352093   0.216209
    12  C    0.298247  -0.022785
    13  C   -0.198355   0.007773
    14  C   -0.220691   0.043132
    15  C   -0.189334   0.026514
    16  H    0.192134  -0.000615
    17  C   -0.181638  -0.011981
    18  H    0.173203  -0.002209
    19  H    0.170736  -0.001531
    20  H    0.168299   0.000289
    21  C    0.315069   0.003707
    22  C    0.352085   0.216215
    23  C    0.298229  -0.022785
    24  C   -0.198366   0.007774
    25  C   -0.220683   0.043133
    26  C   -0.189332   0.026515
    27  H    0.192134  -0.000615
    28  C   -0.181640  -0.011981
    29  H    0.173203  -0.002209
    30  H    0.170736  -0.001531
    31  H    0.168297   0.000289
    32  N   -0.714587  -0.009199
    33  N   -0.587085   0.040293
    34  N   -0.714579  -0.009201
    35  N   -0.587094   0.040295
    36  C   -0.403632  -0.004815
    37  H    0.201746   0.002430
    38  H    0.201753   0.002433
    39  H    0.215802  -0.000613
    40  C   -0.403634  -0.004815
    41  H    0.201750   0.002434
    42  H    0.201744   0.002429
    43  H    0.215801  -0.000613
    44  Co   0.033756   1.552437
 Sum of Mulliken charges =  -0.00000   2.00000

 Dipole moment (field-independent basis, Debye):
    X=              0.0002    Y=             -3.7272    Z=             -0.0000  Tot=              3.7272
 Quadrupole moment (field-independent basis, Debye-Ang):
   XX=           -136.6246   YY=           -133.5095   ZZ=           -173.6139
   XY=             -0.0003   XZ=             -0.0004   YZ=              0.0001

 Normal termination of Gaussian 16 at Wed Jul 17 20:47:44 2024.
